 argument  1 = h2o-neb.nw



============================== echo of input deck ==============================
Title "NEB calculation of H2O Inversion Pathway"
echo
start h2o-neb

memory 1600 mb

permanent_dir ./perm2
scratch_dir   ./perm2

geometry nocenter noautosym noautoz
O  0.00000000    -0.02293938     0.00000000
H  0.00000000     0.55046969     0.75406534
H  0.00000000     0.55046969    -0.75406534
end

geometry endgeom nocenter noautosym noautoz
O  0.00000000     0.02293938     0.00000000
H  0.00000000    -0.55046969     0.75406534
H  0.00000000    -0.55046969    -0.75406534
end

#### Gaussian DFT ####
basis
* library 3-21G
end

dft
   xc b3lyp
   maxiter 5001
   cgmin
end

neb
   nbeads 10
   kbeads 0.1
   maxiter 10
   stepsize 1.00
   print_shift 1
end
task dft neb ignore

neb
   # increase the number of images
   nbeads 20
   kbeads 1.0
   stepsize 1.0
   maxiter 30
   loose
end
task dft neb ignore
================================================================================


                                         
                                         


             Northwest Computational Chemistry Package (NWChem) 6.1.1
             --------------------------------------------------------


                    Environmental Molecular Sciences Laboratory
                       Pacific Northwest National Laboratory
                                Richland, WA 99352

                              Copyright (c) 1994-2012
                       Pacific Northwest National Laboratory
                            Battelle Memorial Institute

             NWChem is an open-source computational chemistry package
                        distributed under the terms of the
                      Educational Community License (ECL) 2.0
             A copy of the license is included with this distribution
                              in the LICENSE.TXT file

                                  ACKNOWLEDGMENT
                                  --------------

            This software and its documentation were developed at the
            EMSL at Pacific Northwest National Laboratory, a multiprogram
            national laboratory, operated for the U.S. Department of Energy
            by Battelle under Contract Number DE-AC05-76RL01830. Support
            for this work was provided by the Department of Energy Office
            of Biological and Environmental Research, Office of Basic
            Energy Sciences, and the Office of Advanced Scientific Computing.


           Job information
           ---------------

    hostname        = WE24397
    program         = nwchem
    date            = Fri May 17 10:43:19 2013

    compiled        = Thu_May_16_16:03:06_2013
    source          = /Users/bylaska/nwchem-releases/nwchem
    nwchem branch   = Development
    nwchem revision = 24142
    ga revision     = 10354
    input           = h2o-neb.nw
    prefix          = h2o-neb.
    data base       = ./perm2/h2o-neb.db
    status          = startup
    nproc           =        4
    time left       =     -1s



           Memory information
           ------------------

    heap     =   52428801 doubles =    400.0 Mbytes
    stack    =   52428801 doubles =    400.0 Mbytes
    global   =  104857600 doubles =    800.0 Mbytes (distinct from heap & stack)
    total    =  209715202 doubles =   1600.0 Mbytes
    verify   = yes
    hardfail = no 


           Directory information
           ---------------------

  0 permanent = ./perm2
  0 scratch   = ./perm2




                                NWChem Input Module
                                -------------------


                     NEB calculation of H2O Inversion Pathway
                     ----------------------------------------

 Scaling coordinates for geometry "geometry" by  1.889725989
 (inverse scale =  0.529177249)



                             Geometry "geometry" -> ""
                             -------------------------

 Output coordinates in angstroms (scale by  1.889725989 to convert to a.u.)

  No.       Tag          Charge          X              Y              Z
 ---- ---------------- ---------- -------------- -------------- --------------
    1 O                    8.0000     0.00000000    -0.02293938     0.00000000
    2 H                    1.0000     0.00000000     0.55046969     0.75406534
    3 H                    1.0000     0.00000000     0.55046969    -0.75406534

      Atomic Mass 
      ----------- 

      O                 15.994910
      H                  1.007825


 Effective nuclear repulsion energy (a.u.)       9.2885688283

            Nuclear Dipole moment (a.u.) 
            ----------------------------
        X                 Y               Z
 ---------------- ---------------- ----------------
     0.0000000000     1.7336806179     0.0000000000


            XYZ format geometry
            -------------------
     3
 geometry
 O                     0.00000000    -0.02293938     0.00000000
 H                     0.00000000     0.55046969     0.75406534
 H                     0.00000000     0.55046969    -0.75406534

 ==============================================================================
                                internuclear distances
 ------------------------------------------------------------------------------
       center one      |      center two      | atomic units |  angstroms
 ------------------------------------------------------------------------------
    2 H                |   1 O                |     1.79017  |     0.94732
    3 H                |   1 O                |     1.79017  |     0.94732
 ------------------------------------------------------------------------------
                         number of included internuclear distances:          2
 ==============================================================================



 ==============================================================================
                                 internuclear angles
 ------------------------------------------------------------------------------
        center 1       |       center 2       |       center 3       |  degrees
 ------------------------------------------------------------------------------
    2 H                |   1 O                |   3 H                |   105.50
 ------------------------------------------------------------------------------
                            number of included internuclear angles:          1
 ==============================================================================




 Scaling coordinates for geometry "endgeom" by  1.889725989
 (inverse scale =  0.529177249)



                         Geometry "endgeom" -> "        "
                         --------------------------------

 Output coordinates in angstroms (scale by  1.889725989 to convert to a.u.)

  No.       Tag          Charge          X              Y              Z
 ---- ---------------- ---------- -------------- -------------- --------------
    1 O                    8.0000     0.00000000     0.02293938     0.00000000
    2 H                    1.0000     0.00000000    -0.55046969     0.75406534
    3 H                    1.0000     0.00000000    -0.55046969    -0.75406534

      Atomic Mass 
      ----------- 

      O                 15.994910
      H                  1.007825


 Effective nuclear repulsion energy (a.u.)       9.2885688283

            Nuclear Dipole moment (a.u.) 
            ----------------------------
        X                 Y               Z
 ---------------- ---------------- ----------------
     0.0000000000    -1.7336806179     0.0000000000


            XYZ format geometry
            -------------------
     3
 endgeom
 O                     0.00000000     0.02293938     0.00000000
 H                     0.00000000    -0.55046969     0.75406534
 H                     0.00000000    -0.55046969    -0.75406534

 ==============================================================================
                                internuclear distances
 ------------------------------------------------------------------------------
       center one      |      center two      | atomic units |  angstroms
 ------------------------------------------------------------------------------
    2 H                |   1 O                |     1.79017  |     0.94732
    3 H                |   1 O                |     1.79017  |     0.94732
 ------------------------------------------------------------------------------
                         number of included internuclear distances:          2
 ==============================================================================



 ==============================================================================
                                 internuclear angles
 ------------------------------------------------------------------------------
        center 1       |       center 2       |       center 3       |  degrees
 ------------------------------------------------------------------------------
    2 H                |   1 O                |   3 H                |   105.50
 ------------------------------------------------------------------------------
                            number of included internuclear angles:          1
 ==============================================================================





 Summary of "ao basis" -> "" (cartesian)
 ------------------------------------------------------------------------------
       Tag                 Description            Shells   Functions and Types
 ---------------- ------------------------------  ------  ---------------------
 *                           3-21G                    on all atoms 




                    NWChem Minimum Energy Pathway Program (NEB)
                    -------------------------------------------




                     NEB calculation of H2O Inversion Pathway


 NEW NEB CHAIN, INITIALIZING
  - Generating initial path by linear interpolation
    + number images =   10
    + neb_start (geometry) geometry -->
 neb_end (endgeom) geometry

 maximum gradient threshold         (gmax) =   0.000450
 rms gradient threshold             (grms) =   0.000300
 maximum cartesian step threshold   (xmax) =   0.000180
 rms cartesian step threshold       (xrms) =   0.000120

 step size                      (stepsize) =   1.000000
 fixed trust radius                (trust) =   0.100000
 maximum number of steps         (maxiter) =   10
 number of images in path         (nbeads) =   10
 number of histories               (nhist) =    5
 number of atoms                           =    3
 NEB spring constant in a.u.      (kbeads) =   0.100000
 NEB algorithm                 (algorithm) =    0 (Fixed Point                   )
 NEB movecs filename                       = h2o-neb.movecs                                                                  


 neb: Calculating Initial Path Energy
 neb: running bead                     1

                                 NWChem DFT Module
                                 -----------------


                     NEB calculation of H2O Inversion Pathway


                      Basis "ao basis" -> "ao basis" (cartesian)
                      -----
  O (Oxygen)
  ----------
            Exponent  Coefficients 
       -------------- ---------------------------------------------------------
  1 S  3.22037000E+02  0.059239
  1 S  4.84308000E+01  0.351500
  1 S  1.04206000E+01  0.707658

  2 S  7.40294000E+00 -0.404453
  2 S  1.57620000E+00  1.221560

  3 P  7.40294000E+00  0.244586
  3 P  1.57620000E+00  0.853955

  4 S  3.73684000E-01  1.000000

  5 P  3.73684000E-01  1.000000

  H (Hydrogen)
  ------------
            Exponent  Coefficients 
       -------------- ---------------------------------------------------------
  1 S  5.44717800E+00  0.156285
  1 S  8.24547000E-01  0.904691

  2 S  1.83192000E-01  1.000000



 Summary of "ao basis" -> "ao basis" (cartesian)
 ------------------------------------------------------------------------------
       Tag                 Description            Shells   Functions and Types
 ---------------- ------------------------------  ------  ---------------------
 O                           3-21G                   5        9   3s2p
 H                           3-21G                   2        2   2s


  Caching 1-el integrals 

            General Information
            -------------------
          SCF calculation type: DFT
          Wavefunction type:  closed shell.
          No. of atoms     :     3
          No. of electrons :    10
           Alpha electrons :     5
            Beta electrons :     5
          Charge           :     0
          Spin multiplicity:     1
          Use of symmetry is: off; symmetry adaption is: off
          Maximum number of iterations: ***
          AO basis - number of functions:    13
                     number of shells:     9
          Convergence on energy requested: 1.00D-06
          Convergence on density requested: 1.00D-05
          Convergence on gradient requested: 5.00D-04

              XC Information
              --------------
                         B3LYP Method XC Potential
                     Hartree-Fock (Exact) Exchange  0.200          
                        Slater Exchange Functional  0.800 local    
                    Becke 1988 Exchange Functional  0.720 non-local
              Lee-Yang-Parr Correlation Functional  0.810          
                  VWN I RPA Correlation Functional  0.190 local    

             Grid Information
             ----------------
          Grid used for XC integration:  medium    
          Radial quadrature: Mura-Knowles        
          Angular quadrature: Lebedev. 
          Tag              B.-S. Rad. Rad. Pts. Rad. Cut. Ang. Pts.
          ---              ---------- --------- --------- ---------
          O                   0.60       49           5.0       434
          H                   0.35       45           6.0       434
          Grid pruning is: on 
          Number of quadrature shells:   139
          Spatial weights used:  Erf1

          Convergence Information
          -----------------------
          Convergence aids based upon iterative change in 
          total energy or number of iterations. 
          Levelshifting, if invoked, occurs when the 
          HOMO/LUMO gap drops below (HL_TOL): 1.00D-02
          DIIS, if invoked, will attempt to extrapolate 
          using up to (NFOCK): 10 stored Fock matrices.

                    Damping( 0%)  Levelshifting(0.5)       DIIS
                  --------------- ------------------- ---------------
          dE  on:    start            ASAP                start   
          dE off:    2 iters        *** iters           *** iters 


      Screening Tolerance Information
      -------------------------------
          Density screening/tol_rho: 1.00D-10
          AO Gaussian exp screening on grid/accAOfunc:  14
          CD Gaussian exp screening on grid/accCDfunc:  20
          XC Gaussian exp screening on grid/accXCfunc:  20
          Schwarz screening/accCoul: 1.00D-08


      Superposition of Atomic Density Guess
      -------------------------------------

 Sum of atomic energies:         -75.36108718

      Non-variational initial energy
      ------------------------------

 Total energy =     -75.556405
 1-e energy   =    -121.615047
 2-e energy   =      36.770073
 HOMO         =      -0.440733
 LUMO         =       0.167704



 ----------------------------------------------
         Quadratically convergent ROKS

 Convergence threshold     :          5.000E-04
 Maximum no. of iterations :         5001
 Final Fock-matrix accuracy:          1.000E-07
 ----------------------------------------------


 #quartets = 1.035D+03 #integrals = 2.423D+03 #direct =  0.0% #cached =100.0%


 Integral file          = ./perm2/h2o-neb.aoints.0
 Record size in doubles =  65536        No. of integs per rec  =  43688
 Max. records in memory =      2        Max. records in file   = 128038
 No. of bits per label  =      8        No. of bits per value  =     64


File balance: exchanges=     0  moved=     0  time=   0.0


 Grid_pts file          = ./perm2/h2o-neb.gridpts.0
 Record size in doubles =  12289        No. of grid_pts per rec  =   3070
 Max. records in memory =      7        Max. recs in file   =    955820


              iter       energy          gnorm     gmax       time
             ----- ------------------- --------- --------- --------
                 1      -75.9316515856  8.49D-01  3.94D-01      1.2
                 2      -75.9659650358  3.02D-01  1.41D-01      1.3
                 3      -75.9699547006  4.04D-02  2.60D-02      1.5
                 4      -75.9700001221  6.51D-04  3.23D-04      1.7
                 5      -75.9700001663  4.24D-05  2.53D-05      1.9


         Total DFT energy =      -75.970000166350
      One electron energy =     -122.916924169216
           Coulomb energy =       45.236196477730
    Exchange-Corr. energy =       -7.577841303213
 Nuclear repulsion energy =        9.288568828348

 Numeric. integr. density =       10.000000327528

     Total iterative time =      1.8s



                       DFT Final Molecular Orbital Analysis
                       ------------------------------------

 Vector    2  Occ=2.000000D+00  E=-9.948511D-01
              MO Center= -1.3D-14,  2.1D-01, -3.3D-12, r^2= 5.0D-01
   Bfn.  Coefficient  Atom+Function         Bfn.  Coefficient  Atom+Function  
  ----- ------------  ---------------      ----- ------------  ---------------
     6      0.671456  1 O  s                  1     -0.224790  1 O  s          
     2      0.215455  1 O  s          

 Vector    3  Occ=2.000000D+00  E=-5.129177D-01
              MO Center= -4.2D-28,  2.1D-01,  4.9D-12, r^2= 8.0D-01
   Bfn.  Coefficient  Atom+Function         Bfn.  Coefficient  Atom+Function  
  ----- ------------  ---------------      ----- ------------  ---------------
     5      0.412963  1 O  pz                 9      0.335302  1 O  pz         
    10      0.241411  2 H  s                 12     -0.241411  3 H  s          
    11      0.197584  2 H  s                 13     -0.197584  3 H  s          

 Vector    4  Occ=2.000000D+00  E=-3.230206D-01
              MO Center= -1.8D-14, -1.5D-01, -5.3D-13, r^2= 6.2D-01
   Bfn.  Coefficient  Atom+Function         Bfn.  Coefficient  Atom+Function  
  ----- ------------  ---------------      ----- ------------  ---------------
     8      0.482001  1 O  py                 6     -0.477555  1 O  s          
     4      0.443360  1 O  py         

 Vector    5  Occ=2.000000D+00  E=-2.582112D-01
              MO Center=  5.2D-14, -2.3D-02,  5.1D-29, r^2= 5.3D-01
   Bfn.  Coefficient  Atom+Function         Bfn.  Coefficient  Atom+Function  
  ----- ------------  ---------------      ----- ------------  ---------------
     7      0.625257  1 O  px                 3      0.528564  1 O  px         

 Vector    6  Occ=0.000000D+00  E= 1.044680D-01
              MO Center=  5.4D-15,  6.3D-01, -1.0D-11, r^2= 2.0D+00
   Bfn.  Coefficient  Atom+Function         Bfn.  Coefficient  Atom+Function  
  ----- ------------  ---------------      ----- ------------  ---------------
     6      1.026926  1 O  s                 11     -0.837693  2 H  s          
    13     -0.837693  3 H  s                  8      0.452267  1 O  py         
     4      0.247673  1 O  py         

 Vector    7  Occ=0.000000D+00  E= 1.981542D-01
              MO Center= -2.3D-28,  5.6D-01,  9.0D-12, r^2= 2.2D+00
   Bfn.  Coefficient  Atom+Function         Bfn.  Coefficient  Atom+Function  
  ----- ------------  ---------------      ----- ------------  ---------------
    11      1.127227  2 H  s                 13     -1.127227  3 H  s          
     9     -0.745259  1 O  pz                 5     -0.360797  1 O  pz         

 Vector    8  Occ=0.000000D+00  E= 9.410724D-01
              MO Center=  3.9D-29,  3.7D-01, -5.2D-13, r^2= 1.5D+00
   Bfn.  Coefficient  Atom+Function         Bfn.  Coefficient  Atom+Function  
  ----- ------------  ---------------      ----- ------------  ---------------
    10      0.960800  2 H  s                 12     -0.960800  3 H  s          
    11     -0.751814  2 H  s                 13      0.751814  3 H  s          
     9     -0.383098  1 O  pz                 5     -0.210132  1 O  pz         

 Vector    9  Occ=0.000000D+00  E= 1.022724D+00
              MO Center= -2.8D-14,  5.6D-01,  6.2D-13, r^2= 1.1D+00
   Bfn.  Coefficient  Atom+Function         Bfn.  Coefficient  Atom+Function  
  ----- ------------  ---------------      ----- ------------  ---------------
    10      0.971363  2 H  s                 12      0.971363  3 H  s          
    11     -0.523397  2 H  s                 13     -0.523397  3 H  s          
     4     -0.317835  1 O  py                 8     -0.229769  1 O  py         

 Vector   10  Occ=0.000000D+00  E= 1.439716D+00
              MO Center= -6.5D-15, -2.3D-02,  7.5D-30, r^2= 7.3D-01
   Bfn.  Coefficient  Atom+Function         Bfn.  Coefficient  Atom+Function  
  ----- ------------  ---------------      ----- ------------  ---------------
     3      1.025557  1 O  px                 7     -0.969639  1 O  px         

 Vector   11  Occ=0.000000D+00  E= 1.512897D+00
              MO Center=  1.4D-15, -1.8D-01,  7.5D-13, r^2= 7.6D-01
   Bfn.  Coefficient  Atom+Function         Bfn.  Coefficient  Atom+Function  
  ----- ------------  ---------------      ----- ------------  ---------------
     8      1.184697  1 O  py                 4     -0.986805  1 O  py         
    10     -0.308566  2 H  s                 12     -0.308566  3 H  s          
     6      0.229752  1 O  s          

 Vector   12  Occ=0.000000D+00  E= 1.646335D+00
              MO Center=  1.1D-28, -7.5D-02, -5.9D-13, r^2= 9.4D-01
   Bfn.  Coefficient  Atom+Function         Bfn.  Coefficient  Atom+Function  
  ----- ------------  ---------------      ----- ------------  ---------------
     9      1.463854  1 O  pz                 5     -1.038936  1 O  pz         
    11     -0.540182  2 H  s                 13      0.540182  3 H  s          
    10     -0.173690  2 H  s                 12      0.173690  3 H  s          

 Vector   13  Occ=0.000000D+00  E= 2.758522D+00
              MO Center=  6.8D-15,  1.6D-01, -3.1D-13, r^2= 7.6D-01
   Bfn.  Coefficient  Atom+Function         Bfn.  Coefficient  Atom+Function  
  ----- ------------  ---------------      ----- ------------  ---------------
     6      2.026470  1 O  s                  2     -1.644416  1 O  s          
     8      0.493835  1 O  py                11     -0.376123  2 H  s          
    13     -0.376123  3 H  s                 10     -0.288058  2 H  s          
    12     -0.288058  3 H  s          


 Parallel integral file used       4 records with       0 large values



                            NWChem DFT Gradient Module
                            --------------------------


                     NEB calculation of H2O Inversion Pathway



  charge          =   0.00
  wavefunction    = closed shell



                         DFT ENERGY GRADIENTS

    atom               coordinates                        gradient
                 x          y          z           x          y          z
   1 O       0.000000  -0.043349   0.000000   -0.000000   0.051973  -0.000000
   2 H       0.000000   1.040237   1.424977    0.000000  -0.025987  -0.037584
   3 H       0.000000   1.040237  -1.424977    0.000000  -0.025987   0.037584

                 ----------------------------------------
                 |  Time  |  1-e(secs)   |  2-e(secs)   |
                 ----------------------------------------
                 |  CPU   |       0.00   |       0.01   |
                 ----------------------------------------
                 |  WALL  |       0.00   |       0.01   |
                 ----------------------------------------
 neb: finished bead                     1
 neb: final energy  -75.970000166349948     
 neb: running bead                     2

                                 NWChem DFT Module
                                 -----------------


                     NEB calculation of H2O Inversion Pathway


  Caching 1-el integrals 

            General Information
            -------------------
          SCF calculation type: DFT
          Wavefunction type:  closed shell.
          No. of atoms     :     3
          No. of electrons :    10
           Alpha electrons :     5
            Beta electrons :     5
          Charge           :     0
          Spin multiplicity:     1
          Use of symmetry is: off; symmetry adaption is: off
          Maximum number of iterations: ***
          AO basis - number of functions:    13
                     number of shells:     9
          Convergence on energy requested: 1.00D-06
          Convergence on density requested: 1.00D-05
          Convergence on gradient requested: 5.00D-04

              XC Information
              --------------
                         B3LYP Method XC Potential
                     Hartree-Fock (Exact) Exchange  0.200          
                        Slater Exchange Functional  0.800 local    
                    Becke 1988 Exchange Functional  0.720 non-local
              Lee-Yang-Parr Correlation Functional  0.810          
                  VWN I RPA Correlation Functional  0.190 local    

             Grid Information
             ----------------
          Grid used for XC integration:  medium    
          Radial quadrature: Mura-Knowles        
          Angular quadrature: Lebedev. 
          Tag              B.-S. Rad. Rad. Pts. Rad. Cut. Ang. Pts.
          ---              ---------- --------- --------- ---------
          O                   0.60       49           5.0       434
          H                   0.35       45           6.0       434
          Grid pruning is: on 
          Number of quadrature shells:   139
          Spatial weights used:  Erf1

          Convergence Information
          -----------------------
          Convergence aids based upon iterative change in 
          total energy or number of iterations. 
          Levelshifting, if invoked, occurs when the 
          HOMO/LUMO gap drops below (HL_TOL): 1.00D-02
          DIIS, if invoked, will attempt to extrapolate 
          using up to (NFOCK): 10 stored Fock matrices.

                    Damping( 0%)  Levelshifting(0.5)       DIIS
                  --------------- ------------------- ---------------
          dE  on:    start            ASAP                start   
          dE off:    2 iters        *** iters           *** iters 


      Screening Tolerance Information
      -------------------------------
          Density screening/tol_rho: 1.00D-10
          AO Gaussian exp screening on grid/accAOfunc:  14
          CD Gaussian exp screening on grid/accCDfunc:  20
          XC Gaussian exp screening on grid/accXCfunc:  20
          Schwarz screening/accCoul: 1.00D-08


 Loading old vectors from job with title :

NEB calculation of H2O Inversion Pathway



 ----------------------------------------------
         Quadratically convergent ROKS

 Convergence threshold     :          5.000E-04
 Maximum no. of iterations :         5001
 Final Fock-matrix accuracy:          1.000E-07
 ----------------------------------------------


 #quartets = 1.035D+03 #integrals = 2.423D+03 #direct =  0.0% #cached =100.0%


 Integral file          = ./perm2/h2o-neb.aoints.0
 Record size in doubles =  65536        No. of integs per rec  =  43688
 Max. records in memory =      2        Max. records in file   = 224011
 No. of bits per label  =      8        No. of bits per value  =     64


File balance: exchanges=     0  moved=     0  time=   0.0


 Grid_pts file          = ./perm2/h2o-neb.gridpts.0
 Record size in doubles =  12289        No. of grid_pts per rec  =   3070
 Max. records in memory =      7        Max. recs in file   =   1194633


              iter       energy          gnorm     gmax       time
             ----- ------------------- --------- --------- --------
                 1      -75.9361310851  3.26D-01  1.58D-01      2.5
                 2      -75.9436963325  1.47D-01  7.64D-02      2.6
                 3      -75.9446336174  2.08D-03  1.02D-03      2.9
                 4      -75.9446339514  5.67D-06  3.49D-06      3.2


         Total DFT energy =      -75.944633951406
      One electron energy =     -124.245448756947
           Coulomb energy =       45.923340622488
    Exchange-Corr. energy =       -7.637858692019
 Nuclear repulsion energy =       10.015332875072

 Numeric. integr. density =        9.999999828007

     Total iterative time =      1.1s



                       DFT Final Molecular Orbital Analysis
                       ------------------------------------

 Vector    2  Occ=2.000000D+00  E=-1.011281D+00
              MO Center= -1.5D-14,  1.9D-01, -4.0D-12, r^2= 5.0D-01
   Bfn.  Coefficient  Atom+Function         Bfn.  Coefficient  Atom+Function  
  ----- ------------  ---------------      ----- ------------  ---------------
     6      0.654235  1 O  s                  1     -0.225645  1 O  s          
     2      0.217265  1 O  s          

 Vector    3  Occ=2.000000D+00  E=-5.635931D-01
              MO Center= -3.3D-28,  1.7D-01,  5.5D-12, r^2= 7.3D-01
   Bfn.  Coefficient  Atom+Function         Bfn.  Coefficient  Atom+Function  
  ----- ------------  ---------------      ----- ------------  ---------------
     5      0.420628  1 O  pz                 9      0.307441  1 O  pz         
    10      0.258654  2 H  s                 12     -0.258654  3 H  s          
    11      0.165667  2 H  s                 13     -0.165667  3 H  s          

 Vector    4  Occ=2.000000D+00  E=-2.976994D-01
              MO Center= -3.2D-14, -1.8D-01, -6.3D-13, r^2= 5.5D-01
   Bfn.  Coefficient  Atom+Function         Bfn.  Coefficient  Atom+Function  
  ----- ------------  ---------------      ----- ------------  ---------------
     8      0.527011  1 O  py                 4      0.466494  1 O  py         
     6     -0.422318  1 O  s          

 Vector    5  Occ=2.000000D+00  E=-2.572543D-01
              MO Center=  7.1D-14, -1.8D-02,  6.7D-29, r^2= 5.3D-01
   Bfn.  Coefficient  Atom+Function         Bfn.  Coefficient  Atom+Function  
  ----- ------------  ---------------      ----- ------------  ---------------
     7      0.628704  1 O  px                 3      0.524911  1 O  px         

 Vector    6  Occ=0.000000D+00  E= 1.309317D-01
              MO Center=  6.5D-15,  5.3D-01, -1.9D-11, r^2= 2.2D+00
   Bfn.  Coefficient  Atom+Function         Bfn.  Coefficient  Atom+Function  
  ----- ------------  ---------------      ----- ------------  ---------------
     6      1.174826  1 O  s                 11     -0.899002  2 H  s          
    13     -0.899002  3 H  s                  8      0.372908  1 O  py         
     4      0.195502  1 O  py         

 Vector    7  Occ=0.000000D+00  E= 2.280750D-01
              MO Center= -1.7D-27,  5.0D-01,  1.7D-11, r^2= 2.4D+00
   Bfn.  Coefficient  Atom+Function         Bfn.  Coefficient  Atom+Function  
  ----- ------------  ---------------      ----- ------------  ---------------
    11      1.240457  2 H  s                 13     -1.240457  3 H  s          
     9     -0.769451  1 O  pz                 5     -0.334836  1 O  pz         

 Vector    8  Occ=0.000000D+00  E= 1.024858D+00
              MO Center= -3.5D-14,  4.8D-01,  1.3D-11, r^2= 1.0D+00
   Bfn.  Coefficient  Atom+Function         Bfn.  Coefficient  Atom+Function  
  ----- ------------  ---------------      ----- ------------  ---------------
    10      1.020652  2 H  s                 12      1.020652  3 H  s          
    11     -0.435442  2 H  s                 13     -0.435442  3 H  s          
     8     -0.378482  1 O  py                 6     -0.337603  1 O  s          
     4     -0.198643  1 O  py         

 Vector    9  Occ=0.000000D+00  E= 1.075931D+00
              MO Center=  2.3D-27,  1.9D-01, -1.3D-11, r^2= 1.3D+00
   Bfn.  Coefficient  Atom+Function         Bfn.  Coefficient  Atom+Function  
  ----- ------------  ---------------      ----- ------------  ---------------
    10      1.035436  2 H  s                 12     -1.035436  3 H  s          
     9     -0.676188  1 O  pz                11     -0.543546  2 H  s          
    13      0.543546  3 H  s                  5     -0.260017  1 O  pz         

 Vector   10  Occ=0.000000D+00  E= 1.445089D+00
              MO Center= -7.5D-15, -1.8D-02, -2.2D-29, r^2= 7.3D-01
   Bfn.  Coefficient  Atom+Function         Bfn.  Coefficient  Atom+Function  
  ----- ------------  ---------------      ----- ------------  ---------------
     3      1.027432  1 O  px                 7     -0.967408  1 O  px         

 Vector   11  Occ=0.000000D+00  E= 1.476156D+00
              MO Center=  3.5D-15, -1.4D-01,  5.2D-13, r^2= 7.4D-01
   Bfn.  Coefficient  Atom+Function         Bfn.  Coefficient  Atom+Function  
  ----- ------------  ---------------      ----- ------------  ---------------
     8     -1.112539  1 O  py                 4      1.017629  1 O  py         
     6     -0.289574  1 O  s                 10      0.161182  2 H  s          
    12      0.161182  3 H  s                 11      0.155990  2 H  s          
    13      0.155990  3 H  s          

 Vector   12  Occ=0.000000D+00  E= 1.672830D+00
              MO Center=  1.6D-29, -7.0D-02, -2.9D-13, r^2= 9.9D-01
   Bfn.  Coefficient  Atom+Function         Bfn.  Coefficient  Atom+Function  
  ----- ------------  ---------------      ----- ------------  ---------------
     9      1.607991  1 O  pz                 5     -1.042004  1 O  pz         
    11     -0.658724  2 H  s                 13      0.658724  3 H  s          
    10     -0.196730  2 H  s                 12      0.196730  3 H  s          

 Vector   13  Occ=0.000000D+00  E= 2.771967D+00
              MO Center=  9.1D-15,  1.2D-01, -2.2D-13, r^2= 7.9D-01
   Bfn.  Coefficient  Atom+Function         Bfn.  Coefficient  Atom+Function  
  ----- ------------  ---------------      ----- ------------  ---------------
     6      2.136241  1 O  s                  2     -1.663936  1 O  s          
    11     -0.451944  2 H  s                 13     -0.451944  3 H  s          
     8      0.385371  1 O  py                10     -0.220616  2 H  s          
    12     -0.220616  3 H  s          


 Parallel integral file used       4 records with       0 large values



                            NWChem DFT Gradient Module
                            --------------------------


                     NEB calculation of H2O Inversion Pathway



  charge          =   0.00
  wavefunction    = closed shell



                         DFT ENERGY GRADIENTS

    atom               coordinates                        gradient
                 x          y          z           x          y          z
   1 O       0.000000  -0.033716   0.000000   -0.000000   0.157443  -0.000000
   2 H       0.000000   0.809073   1.424977    0.000000  -0.078721  -0.109791
   3 H       0.000000   0.809073  -1.424977    0.000000  -0.078721   0.109791

                 ----------------------------------------
                 |  Time  |  1-e(secs)   |  2-e(secs)   |
                 ----------------------------------------
                 |  CPU   |       0.00   |       0.01   |
                 ----------------------------------------
                 |  WALL  |       0.00   |       0.01   |
                 ----------------------------------------
 neb: finished bead                     2
 neb: final energy  -75.944633951406246     
 neb: running bead                     3

                                 NWChem DFT Module
                                 -----------------


                     NEB calculation of H2O Inversion Pathway


  Caching 1-el integrals 

            General Information
            -------------------
          SCF calculation type: DFT
          Wavefunction type:  closed shell.
          No. of atoms     :     3
          No. of electrons :    10
           Alpha electrons :     5
            Beta electrons :     5
          Charge           :     0
          Spin multiplicity:     1
          Use of symmetry is: off; symmetry adaption is: off
          Maximum number of iterations: ***
          AO basis - number of functions:    13
                     number of shells:     9
          Convergence on energy requested: 1.00D-06
          Convergence on density requested: 1.00D-05
          Convergence on gradient requested: 5.00D-04

              XC Information
              --------------
                         B3LYP Method XC Potential
                     Hartree-Fock (Exact) Exchange  0.200          
                        Slater Exchange Functional  0.800 local    
                    Becke 1988 Exchange Functional  0.720 non-local
              Lee-Yang-Parr Correlation Functional  0.810          
                  VWN I RPA Correlation Functional  0.190 local    

             Grid Information
             ----------------
          Grid used for XC integration:  medium    
          Radial quadrature: Mura-Knowles        
          Angular quadrature: Lebedev. 
          Tag              B.-S. Rad. Rad. Pts. Rad. Cut. Ang. Pts.
          ---              ---------- --------- --------- ---------
          O                   0.60       49           4.0       434
          H                   0.35       45           6.0       434
          Grid pruning is: on 
          Number of quadrature shells:   139
          Spatial weights used:  Erf1

          Convergence Information
          -----------------------
          Convergence aids based upon iterative change in 
          total energy or number of iterations. 
          Levelshifting, if invoked, occurs when the 
          HOMO/LUMO gap drops below (HL_TOL): 1.00D-02
          DIIS, if invoked, will attempt to extrapolate 
          using up to (NFOCK): 10 stored Fock matrices.

                    Damping( 0%)  Levelshifting(0.5)       DIIS
                  --------------- ------------------- ---------------
          dE  on:    start            ASAP                start   
          dE off:    2 iters        *** iters           *** iters 


      Screening Tolerance Information
      -------------------------------
          Density screening/tol_rho: 1.00D-10
          AO Gaussian exp screening on grid/accAOfunc:  14
          CD Gaussian exp screening on grid/accCDfunc:  20
          XC Gaussian exp screening on grid/accXCfunc:  20
          Schwarz screening/accCoul: 1.00D-08


 Loading old vectors from job with title :

NEB calculation of H2O Inversion Pathway



 ----------------------------------------------
         Quadratically convergent ROKS

 Convergence threshold     :          5.000E-04
 Maximum no. of iterations :         5001
 Final Fock-matrix accuracy:          1.000E-07
 ----------------------------------------------


 #quartets = 1.035D+03 #integrals = 2.423D+03 #direct =  0.0% #cached =100.0%


 Integral file          = ./perm2/h2o-neb.aoints.0
 Record size in doubles =  65536        No. of integs per rec  =  43688
 Max. records in memory =      2        Max. records in file   = 224011
 No. of bits per label  =      8        No. of bits per value  =     64


File balance: exchanges=     0  moved=     0  time=   0.0


 Grid_pts file          = ./perm2/h2o-neb.gridpts.0
 Record size in doubles =  12289        No. of grid_pts per rec  =   3070
 Max. records in memory =      7        Max. recs in file   =   1194633


              iter       energy          gnorm     gmax       time
             ----- ------------------- --------- --------- --------
                 1      -75.8879767144  3.35D-01  1.64D-01      3.8
                 2      -75.8960080909  1.52D-01  7.97D-02      3.9
                 3      -75.8968320791  1.23D-02  6.46D-03      4.0
                 4      -75.8968463967  3.11D-05  1.65D-05      4.3


         Total DFT energy =      -75.896846396725
      One electron energy =     -125.427088813932
           Coulomb energy =       46.525855183668
    Exchange-Corr. energy =       -7.689645869092
 Nuclear repulsion energy =       10.694033102631

 Numeric. integr. density =        9.999999878978

     Total iterative time =      0.9s



                       DFT Final Molecular Orbital Analysis
                       ------------------------------------

 Vector    2  Occ=2.000000D+00  E=-1.020638D+00
              MO Center= -2.2D-14,  1.6D-01, -5.2D-12, r^2= 5.0D-01
   Bfn.  Coefficient  Atom+Function         Bfn.  Coefficient  Atom+Function  
  ----- ------------  ---------------      ----- ------------  ---------------
     6      0.639924  1 O  s                  1     -0.228646  1 O  s          
     2      0.221436  1 O  s                 10      0.160037  2 H  s          
    12      0.160037  3 H  s          

 Vector    3  Occ=2.000000D+00  E=-6.137913D-01
              MO Center=  2.4D-28,  1.2D-01,  6.3D-12, r^2= 6.8D-01
   Bfn.  Coefficient  Atom+Function         Bfn.  Coefficient  Atom+Function  
  ----- ------------  ---------------      ----- ------------  ---------------
     5      0.430666  1 O  pz                 9      0.279316  1 O  pz         
    10      0.271199  2 H  s                 12     -0.271199  3 H  s          

 Vector    4  Occ=2.000000D+00  E=-2.786369D-01
              MO Center= -6.5D-14, -1.8D-01, -3.2D-13, r^2= 5.2D-01
   Bfn.  Coefficient  Atom+Function         Bfn.  Coefficient  Atom+Function  
  ----- ------------  ---------------      ----- ------------  ---------------
     8      0.572895  1 O  py                 4      0.489437  1 O  py         
     6     -0.328099  1 O  s          

 Vector    5  Occ=2.000000D+00  E=-2.587592D-01
              MO Center=  1.2D-13, -1.3D-02,  1.1D-28, r^2= 5.4D-01
   Bfn.  Coefficient  Atom+Function         Bfn.  Coefficient  Atom+Function  
  ----- ------------  ---------------      ----- ------------  ---------------
     7      0.630784  1 O  px                 3      0.522700  1 O  px         

 Vector    6  Occ=0.000000D+00  E= 1.540730D-01
              MO Center=  1.0D-14,  4.0D-01, -8.4D-12, r^2= 2.3D+00
   Bfn.  Coefficient  Atom+Function         Bfn.  Coefficient  Atom+Function  
  ----- ------------  ---------------      ----- ------------  ---------------
     6      1.301327  1 O  s                 11     -0.946232  2 H  s          
    13     -0.946232  3 H  s                  8      0.276154  1 O  py         

 Vector    7  Occ=0.000000D+00  E= 2.452603D-01
              MO Center= -1.4D-28,  4.0D-01,  6.8D-12, r^2= 2.6D+00
   Bfn.  Coefficient  Atom+Function         Bfn.  Coefficient  Atom+Function  
  ----- ------------  ---------------      ----- ------------  ---------------
    11      1.322493  2 H  s                 13     -1.322493  3 H  s          
     9     -0.781293  1 O  pz                 5     -0.308414  1 O  pz         

 Vector    8  Occ=0.000000D+00  E= 9.775045D-01
              MO Center= -4.9D-14,  3.9D-01,  6.6D-12, r^2= 9.9D-01
   Bfn.  Coefficient  Atom+Function         Bfn.  Coefficient  Atom+Function  
  ----- ------------  ---------------      ----- ------------  ---------------
    10      1.027504  2 H  s                 12      1.027504  3 H  s          
     6     -0.570036  1 O  s                  8     -0.408938  1 O  py         
    11     -0.360448  2 H  s                 13     -0.360448  3 H  s          

 Vector    9  Occ=0.000000D+00  E= 1.297672D+00
              MO Center= -3.7D-27,  6.3D-02, -5.9D-12, r^2= 1.1D+00
   Bfn.  Coefficient  Atom+Function         Bfn.  Coefficient  Atom+Function  
  ----- ------------  ---------------      ----- ------------  ---------------
    10      1.145575  2 H  s                 12     -1.145575  3 H  s          
     9     -0.954722  1 O  pz                 5     -0.351439  1 O  pz         
    11     -0.348830  2 H  s                 13      0.348830  3 H  s          

 Vector   10  Occ=0.000000D+00  E= 1.448171D+00
              MO Center= -1.8D-14, -1.3D-02,  1.7D-28, r^2= 7.3D-01
   Bfn.  Coefficient  Atom+Function         Bfn.  Coefficient  Atom+Function  
  ----- ------------  ---------------      ----- ------------  ---------------
     3      1.028558  1 O  px                 7     -0.966053  1 O  px         

 Vector   11  Occ=0.000000D+00  E= 1.460986D+00
              MO Center=  1.3D-14, -1.1D-01,  4.4D-13, r^2= 7.3D-01
   Bfn.  Coefficient  Atom+Function         Bfn.  Coefficient  Atom+Function  
  ----- ------------  ---------------      ----- ------------  ---------------
     4      1.030899  1 O  py                 8     -1.024717  1 O  py         
     6     -0.236635  1 O  s                 11      0.169802  2 H  s          
    13      0.169802  3 H  s          

 Vector   12  Occ=0.000000D+00  E= 1.701716D+00
              MO Center=  4.8D-28, -8.1D-02,  7.5D-14, r^2= 1.0D+00
   Bfn.  Coefficient  Atom+Function         Bfn.  Coefficient  Atom+Function  
  ----- ------------  ---------------      ----- ------------  ---------------
     9      1.826619  1 O  pz                 5     -1.028527  1 O  pz         
    11     -0.770272  2 H  s                 13      0.770272  3 H  s          
    10     -0.289113  2 H  s                 12      0.289113  3 H  s          

 Vector   13  Occ=0.000000D+00  E= 2.781692D+00
              MO Center=  1.3D-14,  8.6D-02, -4.5D-13, r^2= 8.2D-01
   Bfn.  Coefficient  Atom+Function         Bfn.  Coefficient  Atom+Function  
  ----- ------------  ---------------      ----- ------------  ---------------
     6      2.193257  1 O  s                  2     -1.671774  1 O  s          
    11     -0.516270  2 H  s                 13     -0.516270  3 H  s          
     8      0.260339  1 O  py         


 Parallel integral file used       4 records with       0 large values



                            NWChem DFT Gradient Module
                            --------------------------


                     NEB calculation of H2O Inversion Pathway



  charge          =   0.00
  wavefunction    = closed shell



                         DFT ENERGY GRADIENTS

    atom               coordinates                        gradient
                 x          y          z           x          y          z
   1 O       0.000000  -0.024083   0.000000   -0.000000   0.229120  -0.000000
   2 H       0.000000   0.577909   1.424977    0.000000  -0.114560  -0.216506
   3 H       0.000000   0.577909  -1.424977    0.000000  -0.114560   0.216506

                 ----------------------------------------
                 |  Time  |  1-e(secs)   |  2-e(secs)   |
                 ----------------------------------------
                 |  CPU   |       0.00   |       0.01   |
                 ----------------------------------------
                 |  WALL  |       0.00   |       0.01   |
                 ----------------------------------------
 neb: finished bead                     3
 neb: final energy  -75.896846396725309     
 neb: running bead                     4

                                 NWChem DFT Module
                                 -----------------


                     NEB calculation of H2O Inversion Pathway


  Caching 1-el integrals 

            General Information
            -------------------
          SCF calculation type: DFT
          Wavefunction type:  closed shell.
          No. of atoms     :     3
          No. of electrons :    10
           Alpha electrons :     5
            Beta electrons :     5
          Charge           :     0
          Spin multiplicity:     1
          Use of symmetry is: off; symmetry adaption is: off
          Maximum number of iterations: ***
          AO basis - number of functions:    13
                     number of shells:     9
          Convergence on energy requested: 1.00D-06
          Convergence on density requested: 1.00D-05
          Convergence on gradient requested: 5.00D-04

              XC Information
              --------------
                         B3LYP Method XC Potential
                     Hartree-Fock (Exact) Exchange  0.200          
                        Slater Exchange Functional  0.800 local    
                    Becke 1988 Exchange Functional  0.720 non-local
              Lee-Yang-Parr Correlation Functional  0.810          
                  VWN I RPA Correlation Functional  0.190 local    

             Grid Information
             ----------------
          Grid used for XC integration:  medium    
          Radial quadrature: Mura-Knowles        
          Angular quadrature: Lebedev. 
          Tag              B.-S. Rad. Rad. Pts. Rad. Cut. Ang. Pts.
          ---              ---------- --------- --------- ---------
          O                   0.60       49           4.0       434
          H                   0.35       45           6.0       434
          Grid pruning is: on 
          Number of quadrature shells:   139
          Spatial weights used:  Erf1

          Convergence Information
          -----------------------
          Convergence aids based upon iterative change in 
          total energy or number of iterations. 
          Levelshifting, if invoked, occurs when the 
          HOMO/LUMO gap drops below (HL_TOL): 1.00D-02
          DIIS, if invoked, will attempt to extrapolate 
          using up to (NFOCK): 10 stored Fock matrices.

                    Damping( 0%)  Levelshifting(0.5)       DIIS
                  --------------- ------------------- ---------------
          dE  on:    start            ASAP                start   
          dE off:    2 iters        *** iters           *** iters 


      Screening Tolerance Information
      -------------------------------
          Density screening/tol_rho: 1.00D-10
          AO Gaussian exp screening on grid/accAOfunc:  14
          CD Gaussian exp screening on grid/accCDfunc:  20
          XC Gaussian exp screening on grid/accXCfunc:  20
          Schwarz screening/accCoul: 1.00D-08


 Loading old vectors from job with title :

NEB calculation of H2O Inversion Pathway



 ----------------------------------------------
         Quadratically convergent ROKS

 Convergence threshold     :          5.000E-04
 Maximum no. of iterations :         5001
 Final Fock-matrix accuracy:          1.000E-07
 ----------------------------------------------


 #quartets = 1.035D+03 #integrals = 2.423D+03 #direct =  0.0% #cached =100.0%


 Integral file          = ./perm2/h2o-neb.aoints.0
 Record size in doubles =  65536        No. of integs per rec  =  43688
 Max. records in memory =      2        Max. records in file   = 224011
 No. of bits per label  =      8        No. of bits per value  =     64


File balance: exchanges=     0  moved=     0  time=   0.0


 Grid_pts file          = ./perm2/h2o-neb.gridpts.0
 Record size in doubles =  12289        No. of grid_pts per rec  =   3070
 Max. records in memory =      7        Max. recs in file   =   1194633


              iter       energy          gnorm     gmax       time
             ----- ------------------- --------- --------- --------
                 1      -75.8332270371  3.18D-01  1.91D-01      5.2
                 2      -75.8410637702  1.07D-01  5.57D-02      5.2
                 3      -75.8414733387  4.76D-04  2.51D-04      5.5


         Total DFT energy =      -75.841473338726
      One electron energy =     -126.324330412482
           Coulomb energy =       46.975446964446
    Exchange-Corr. energy =       -7.727521409003
 Nuclear repulsion energy =       11.234931518314

 Numeric. integr. density =        9.999999480349

     Total iterative time =      1.0s



                       DFT Final Molecular Orbital Analysis
                       ------------------------------------

 Vector    2  Occ=2.000000D+00  E=-1.022821D+00
              MO Center= -1.3D-13,  1.0D-01, -8.4D-12, r^2= 5.0D-01
   Bfn.  Coefficient  Atom+Function         Bfn.  Coefficient  Atom+Function  
  ----- ------------  ---------------      ----- ------------  ---------------
     6      0.630652  1 O  s                  1     -0.232641  1 O  s          
     2      0.226179  1 O  s                 10      0.170630  2 H  s          
    12      0.170630  3 H  s          

 Vector    3  Occ=2.000000D+00  E=-6.555493D-01
              MO Center= -5.4D-27,  7.3D-02,  7.8D-11, r^2= 6.4D-01
   Bfn.  Coefficient  Atom+Function         Bfn.  Coefficient  Atom+Function  
  ----- ------------  ---------------      ----- ------------  ---------------
     5      0.440548  1 O  pz                10      0.278273  2 H  s          
    12     -0.278273  3 H  s                  9      0.256142  1 O  pz         

 Vector    4  Occ=2.000000D+00  E=-2.684094D-01
              MO Center= -5.1D-13, -1.3D-01,  4.9D-12, r^2= 5.2D-01
   Bfn.  Coefficient  Atom+Function         Bfn.  Coefficient  Atom+Function  
  ----- ------------  ---------------      ----- ------------  ---------------
     8      0.609455  1 O  py                 4      0.508816  1 O  py         
     6     -0.205736  1 O  s          

 Vector    5  Occ=2.000000D+00  E=-2.618416D-01
              MO Center=  7.9D-13, -7.6D-03,  6.3D-28, r^2= 5.4D-01
   Bfn.  Coefficient  Atom+Function         Bfn.  Coefficient  Atom+Function  
  ----- ------------  ---------------      ----- ------------  ---------------
     7      0.631570  1 O  px                 3      0.521862  1 O  px         

 Vector    6  Occ=0.000000D+00  E= 1.726299D-01
              MO Center=  7.0D-14,  2.5D-01, -2.8D-10, r^2= 2.4D+00
   Bfn.  Coefficient  Atom+Function         Bfn.  Coefficient  Atom+Function  
  ----- ------------  ---------------      ----- ------------  ---------------
     6      1.393422  1 O  s                 11     -0.978095  2 H  s          
    13     -0.978095  3 H  s                  8      0.168650  1 O  py         

 Vector    7  Occ=0.000000D+00  E= 2.535107D-01
              MO Center= -1.8D-26,  2.6D-01,  1.9D-10, r^2= 2.7D+00
   Bfn.  Coefficient  Atom+Function         Bfn.  Coefficient  Atom+Function  
  ----- ------------  ---------------      ----- ------------  ---------------
    11      1.374904  2 H  s                 13     -1.374904  3 H  s          
     9     -0.792070  1 O  pz                 5     -0.288247  1 O  pz         

 Vector    8  Occ=0.000000D+00  E= 9.181720D-01
              MO Center= -2.8D-13,  2.7D-01,  5.5D-12, r^2= 9.9D-01
   Bfn.  Coefficient  Atom+Function         Bfn.  Coefficient  Atom+Function  
  ----- ------------  ---------------      ----- ------------  ---------------
    10      1.010629  2 H  s                 12      1.010629  3 H  s          
     6     -0.704211  1 O  s                 11     -0.323175  2 H  s          
    13     -0.323175  3 H  s                  8     -0.297082  1 O  py         

 Vector    9  Occ=0.000000D+00  E= 1.448862D+00
              MO Center= -6.5D-14, -7.6D-03, -4.3D-28, r^2= 7.2D-01
   Bfn.  Coefficient  Atom+Function         Bfn.  Coefficient  Atom+Function  
  ----- ------------  ---------------      ----- ------------  ---------------
     3      1.028984  1 O  px                 7     -0.965539  1 O  px         

 Vector   10  Occ=0.000000D+00  E= 1.454285D+00
              MO Center=  4.8D-14, -8.2D-02, -4.3D-12, r^2= 7.3D-01
   Bfn.  Coefficient  Atom+Function         Bfn.  Coefficient  Atom+Function  
  ----- ------------  ---------------      ----- ------------  ---------------
     4      1.031118  1 O  py                 8     -0.979117  1 O  py         

 Vector   11  Occ=0.000000D+00  E= 1.583730D+00
              MO Center= -7.8D-29,  8.5D-02,  1.3D-11, r^2= 9.2D-01
   Bfn.  Coefficient  Atom+Function         Bfn.  Coefficient  Atom+Function  
  ----- ------------  ---------------      ----- ------------  ---------------
    10      1.070732  2 H  s                 12     -1.070732  3 H  s          
     5     -0.757344  1 O  pz                11     -0.468301  2 H  s          
    13      0.468301  3 H  s                  9     -0.456982  1 O  pz         

 Vector   12  Occ=0.000000D+00  E= 1.767691D+00
              MO Center= -2.7D-27, -1.7D-01,  2.9D-13, r^2= 1.1D+00
   Bfn.  Coefficient  Atom+Function         Bfn.  Coefficient  Atom+Function  
  ----- ------------  ---------------      ----- ------------  ---------------
     9      2.410165  1 O  pz                10     -0.843337  2 H  s          
    12      0.843337  3 H  s                  5     -0.793211  1 O  pz         
    11     -0.782394  2 H  s                 13      0.782394  3 H  s          

 Vector   13  Occ=0.000000D+00  E= 2.797682D+00
              MO Center=  6.8D-14,  5.3D-02,  8.7D-13, r^2= 8.5D-01
   Bfn.  Coefficient  Atom+Function         Bfn.  Coefficient  Atom+Function  
  ----- ------------  ---------------      ----- ------------  ---------------
     6      2.217982  1 O  s                  2     -1.675461  1 O  s          
    11     -0.561920  2 H  s                 13     -0.561920  3 H  s          


 Parallel integral file used       4 records with       0 large values



                            NWChem DFT Gradient Module
                            --------------------------


                     NEB calculation of H2O Inversion Pathway



  charge          =   0.00
  wavefunction    = closed shell



                         DFT ENERGY GRADIENTS

    atom               coordinates                        gradient
                 x          y          z           x          y          z
   1 O       0.000000  -0.014450   0.000000   -0.000000   0.212529  -0.000000
   2 H       0.000000   0.346746   1.424977    0.000000  -0.106264  -0.335895
   3 H       0.000000   0.346746  -1.424977    0.000000  -0.106264   0.335895

                 ----------------------------------------
                 |  Time  |  1-e(secs)   |  2-e(secs)   |
                 ----------------------------------------
                 |  CPU   |       0.00   |       0.01   |
                 ----------------------------------------
                 |  WALL  |       0.00   |       0.01   |
                 ----------------------------------------
 neb: finished bead                     4
 neb: final energy  -75.841473338725649     
 neb: running bead                     5

                                 NWChem DFT Module
                                 -----------------


                     NEB calculation of H2O Inversion Pathway


  Caching 1-el integrals 

            General Information
            -------------------
          SCF calculation type: DFT
          Wavefunction type:  closed shell.
          No. of atoms     :     3
          No. of electrons :    10
           Alpha electrons :     5
            Beta electrons :     5
          Charge           :     0
          Spin multiplicity:     1
          Use of symmetry is: off; symmetry adaption is: off
          Maximum number of iterations: ***
          AO basis - number of functions:    13
                     number of shells:     9
          Convergence on energy requested: 1.00D-06
          Convergence on density requested: 1.00D-05
          Convergence on gradient requested: 5.00D-04

              XC Information
              --------------
                         B3LYP Method XC Potential
                     Hartree-Fock (Exact) Exchange  0.200          
                        Slater Exchange Functional  0.800 local    
                    Becke 1988 Exchange Functional  0.720 non-local
              Lee-Yang-Parr Correlation Functional  0.810          
                  VWN I RPA Correlation Functional  0.190 local    

             Grid Information
             ----------------
          Grid used for XC integration:  medium    
          Radial quadrature: Mura-Knowles        
          Angular quadrature: Lebedev. 
          Tag              B.-S. Rad. Rad. Pts. Rad. Cut. Ang. Pts.
          ---              ---------- --------- --------- ---------
          O                   0.60       49           4.0       434
          H                   0.35       45           6.0       434
          Grid pruning is: on 
          Number of quadrature shells:   139
          Spatial weights used:  Erf1

          Convergence Information
          -----------------------
          Convergence aids based upon iterative change in 
          total energy or number of iterations. 
          Levelshifting, if invoked, occurs when the 
          HOMO/LUMO gap drops below (HL_TOL): 1.00D-02
          DIIS, if invoked, will attempt to extrapolate 
          using up to (NFOCK): 10 stored Fock matrices.

                    Damping( 0%)  Levelshifting(0.5)       DIIS
                  --------------- ------------------- ---------------
          dE  on:    start            ASAP                start   
          dE off:    2 iters        *** iters           *** iters 


      Screening Tolerance Information
      -------------------------------
          Density screening/tol_rho: 1.00D-10
          AO Gaussian exp screening on grid/accAOfunc:  14
          CD Gaussian exp screening on grid/accCDfunc:  20
          XC Gaussian exp screening on grid/accXCfunc:  20
          Schwarz screening/accCoul: 1.00D-08


 Loading old vectors from job with title :

NEB calculation of H2O Inversion Pathway



 ----------------------------------------------
         Quadratically convergent ROKS

 Convergence threshold     :          5.000E-04
 Maximum no. of iterations :         5001
 Final Fock-matrix accuracy:          1.000E-07
 ----------------------------------------------


 #quartets = 1.035D+03 #integrals = 2.423D+03 #direct =  0.0% #cached =100.0%


 Integral file          = ./perm2/h2o-neb.aoints.0
 Record size in doubles =  65536        No. of integs per rec  =  43688
 Max. records in memory =      2        Max. records in file   = 224011
 No. of bits per label  =      8        No. of bits per value  =     64


File balance: exchanges=     0  moved=     0  time=   0.0


 Grid_pts file          = ./perm2/h2o-neb.gridpts.0
 Record size in doubles =  12289        No. of grid_pts per rec  =   3070
 Max. records in memory =      7        Max. recs in file   =   1194633


              iter       energy          gnorm     gmax       time
             ----- ------------------- --------- --------- --------
                 1      -75.7963606228  2.86D-01  2.09D-01      6.2
                 2      -75.8033437884  5.26D-02  2.57D-02      6.3
                 3      -75.8034373718  3.83D-04  1.74D-04      6.6


         Total DFT energy =      -75.803437371848
      One electron energy =     -126.812144684632
           Coulomb energy =       47.217021402720
    Exchange-Corr. energy =       -7.747584510390
 Nuclear repulsion energy =       11.539270420453

 Numeric. integr. density =       10.000001014263

     Total iterative time =      0.9s



                       DFT Final Molecular Orbital Analysis
                       ------------------------------------

 Vector    2  Occ=2.000000D+00  E=-1.021541D+00
              MO Center=  2.3D-14,  3.7D-02, -3.6D-12, r^2= 5.1D-01
   Bfn.  Coefficient  Atom+Function         Bfn.  Coefficient  Atom+Function  
  ----- ------------  ---------------      ----- ------------  ---------------
     6      0.626600  1 O  s                  1     -0.235542  1 O  s          
     2      0.229298  1 O  s                 10      0.176375  2 H  s          
    12      0.176375  3 H  s          

 Vector    3  Occ=2.000000D+00  E=-6.796040D-01
              MO Center= -5.9D-29,  2.4D-02,  7.7D-12, r^2= 6.2D-01
   Bfn.  Coefficient  Atom+Function         Bfn.  Coefficient  Atom+Function  
  ----- ------------  ---------------      ----- ------------  ---------------
     5      0.446848  1 O  pz                10      0.280976  2 H  s          
    12     -0.280976  3 H  s                  9      0.243233  1 O  pz         

 Vector    4  Occ=2.000000D+00  E=-2.649045D-01
              MO Center=  1.0D-13, -4.7D-02, -2.5D-12, r^2= 5.3D-01
   Bfn.  Coefficient  Atom+Function         Bfn.  Coefficient  Atom+Function  
  ----- ------------  ---------------      ----- ------------  ---------------
     8      0.629168  1 O  py                 4      0.520219  1 O  py         

 Vector    5  Occ=2.000000D+00  E=-2.642275D-01
              MO Center= -1.7D-13, -2.5D-03, -8.7D-29, r^2= 5.4D-01
   Bfn.  Coefficient  Atom+Function         Bfn.  Coefficient  Atom+Function  
  ----- ------------  ---------------      ----- ------------  ---------------
     7      0.631690  1 O  px                 3      0.521734  1 O  px         

 Vector    6  Occ=0.000000D+00  E= 1.833781D-01
              MO Center=  1.5D-14,  8.5D-02, -9.0D-10, r^2= 2.4D+00
   Bfn.  Coefficient  Atom+Function         Bfn.  Coefficient  Atom+Function  
  ----- ------------  ---------------      ----- ------------  ---------------
     6      1.441890  1 O  s                 11     -0.994134  2 H  s          
    13     -0.994134  3 H  s          

 Vector    7  Occ=0.000000D+00  E= 2.566697D-01
              MO Center=  6.1D-26,  8.9D-02,  8.8D-10, r^2= 2.8D+00
   Bfn.  Coefficient  Atom+Function         Bfn.  Coefficient  Atom+Function  
  ----- ------------  ---------------      ----- ------------  ---------------
    11      1.401566  2 H  s                 13     -1.401566  3 H  s          
     9     -0.801390  1 O  pz                 5     -0.277566  1 O  pz         

 Vector    8  Occ=0.000000D+00  E= 8.818712D-01
              MO Center=  4.5D-14,  9.6D-02,  1.2D-11, r^2= 1.0D+00
   Bfn.  Coefficient  Atom+Function         Bfn.  Coefficient  Atom+Function  
  ----- ------------  ---------------      ----- ------------  ---------------
    10      0.997067  2 H  s                 12      0.997067  3 H  s          
     6     -0.756923  1 O  s                 11     -0.312842  2 H  s          
    13     -0.312842  3 H  s          

 Vector    9  Occ=0.000000D+00  E= 1.448580D+00
              MO Center=  4.3D-14, -2.5D-03,  1.6D-29, r^2= 7.2D-01
   Bfn.  Coefficient  Atom+Function         Bfn.  Coefficient  Atom+Function  
  ----- ------------  ---------------      ----- ------------  ---------------
     3      1.029049  1 O  px                 7     -0.965461  1 O  px         

 Vector   10  Occ=0.000000D+00  E= 1.449301D+00
              MO Center= -5.4D-14, -3.2D-02, -1.1D-12, r^2= 7.2D-01
   Bfn.  Coefficient  Atom+Function         Bfn.  Coefficient  Atom+Function  
  ----- ------------  ---------------      ----- ------------  ---------------
     4      1.029337  1 O  py                 8     -0.966481  1 O  py         

 Vector   11  Occ=0.000000D+00  E= 1.681316D+00
              MO Center=  4.2D-27,  3.2D-02, -4.1D-12, r^2= 9.8D-01
   Bfn.  Coefficient  Atom+Function         Bfn.  Coefficient  Atom+Function  
  ----- ------------  ---------------      ----- ------------  ---------------
     5      1.082330  1 O  pz                 9     -0.943711  1 O  pz         
    11      0.817980  2 H  s                 13     -0.817980  3 H  s          
    10     -0.437039  2 H  s                 12      0.437039  3 H  s          

 Vector   12  Occ=0.000000D+00  E= 2.010753D+00
              MO Center=  6.8D-27, -8.4D-02, -2.2D-11, r^2= 1.1D+00
   Bfn.  Coefficient  Atom+Function         Bfn.  Coefficient  Atom+Function  
  ----- ------------  ---------------      ----- ------------  ---------------
     9      2.626597  1 O  pz                10     -1.467080  2 H  s          
    12      1.467080  3 H  s                 11     -0.572653  2 H  s          
    13      0.572653  3 H  s                  5     -0.207450  1 O  pz         

 Vector   13  Occ=0.000000D+00  E= 2.811214D+00
              MO Center=  9.8D-16,  1.8D-02,  3.7D-11, r^2= 8.6D-01
   Bfn.  Coefficient  Atom+Function         Bfn.  Coefficient  Atom+Function  
  ----- ------------  ---------------      ----- ------------  ---------------
     6      2.227741  1 O  s                  2     -1.677840  1 O  s          
    11     -0.585408  2 H  s                 13     -0.585408  3 H  s          


 Parallel integral file used       4 records with       0 large values



                            NWChem DFT Gradient Module
                            --------------------------


                     NEB calculation of H2O Inversion Pathway



  charge          =   0.00
  wavefunction    = closed shell



                         DFT ENERGY GRADIENTS

    atom               coordinates                        gradient
                 x          y          z           x          y          z
   1 O       0.000000  -0.004817   0.000000   -0.000000   0.087788   0.000000
   2 H       0.000000   0.115582   1.424977   -0.000000  -0.043894  -0.418883
   3 H       0.000000   0.115582  -1.424977    0.000000  -0.043894   0.418883

                 ----------------------------------------
                 |  Time  |  1-e(secs)   |  2-e(secs)   |
                 ----------------------------------------
                 |  CPU   |       0.00   |       0.01   |
                 ----------------------------------------
                 |  WALL  |       0.00   |       0.01   |
                 ----------------------------------------
 neb: finished bead                     5
 neb: final energy  -75.803437371848062     
 neb: running bead                     6

                                 NWChem DFT Module
                                 -----------------


                     NEB calculation of H2O Inversion Pathway


  Caching 1-el integrals 

            General Information
            -------------------
          SCF calculation type: DFT
          Wavefunction type:  closed shell.
          No. of atoms     :     3
          No. of electrons :    10
           Alpha electrons :     5
            Beta electrons :     5
          Charge           :     0
          Spin multiplicity:     1
          Use of symmetry is: off; symmetry adaption is: off
          Maximum number of iterations: ***
          AO basis - number of functions:    13
                     number of shells:     9
          Convergence on energy requested: 1.00D-06
          Convergence on density requested: 1.00D-05
          Convergence on gradient requested: 5.00D-04

              XC Information
              --------------
                         B3LYP Method XC Potential
                     Hartree-Fock (Exact) Exchange  0.200          
                        Slater Exchange Functional  0.800 local    
                    Becke 1988 Exchange Functional  0.720 non-local
              Lee-Yang-Parr Correlation Functional  0.810          
                  VWN I RPA Correlation Functional  0.190 local    

             Grid Information
             ----------------
          Grid used for XC integration:  medium    
          Radial quadrature: Mura-Knowles        
          Angular quadrature: Lebedev. 
          Tag              B.-S. Rad. Rad. Pts. Rad. Cut. Ang. Pts.
          ---              ---------- --------- --------- ---------
          O                   0.60       49           4.0       434
          H                   0.35       45           6.0       434
          Grid pruning is: on 
          Number of quadrature shells:   139
          Spatial weights used:  Erf1

          Convergence Information
          -----------------------
          Convergence aids based upon iterative change in 
          total energy or number of iterations. 
          Levelshifting, if invoked, occurs when the 
          HOMO/LUMO gap drops below (HL_TOL): 1.00D-02
          DIIS, if invoked, will attempt to extrapolate 
          using up to (NFOCK): 10 stored Fock matrices.

                    Damping( 0%)  Levelshifting(0.5)       DIIS
                  --------------- ------------------- ---------------
          dE  on:    start            ASAP                start   
          dE off:    2 iters        *** iters           *** iters 


      Screening Tolerance Information
      -------------------------------
          Density screening/tol_rho: 1.00D-10
          AO Gaussian exp screening on grid/accAOfunc:  14
          CD Gaussian exp screening on grid/accCDfunc:  20
          XC Gaussian exp screening on grid/accXCfunc:  20
          Schwarz screening/accCoul: 1.00D-08


 Loading old vectors from job with title :

NEB calculation of H2O Inversion Pathway



 ----------------------------------------------
         Quadratically convergent ROKS

 Convergence threshold     :          5.000E-04
 Maximum no. of iterations :         5001
 Final Fock-matrix accuracy:          1.000E-07
 ----------------------------------------------


 #quartets = 1.035D+03 #integrals = 2.423D+03 #direct =  0.0% #cached =100.0%


 Integral file          = ./perm2/h2o-neb.aoints.0
 Record size in doubles =  65536        No. of integs per rec  =  43688
 Max. records in memory =      2        Max. records in file   = 224011
 No. of bits per label  =      8        No. of bits per value  =     64


File balance: exchanges=     0  moved=     0  time=   0.0


 Grid_pts file          = ./perm2/h2o-neb.gridpts.0
 Record size in doubles =  12289        No. of grid_pts per rec  =   3070
 Max. records in memory =      7        Max. recs in file   =   1194633


              iter       energy          gnorm     gmax       time
             ----- ------------------- --------- --------- --------
                 1      -75.7969992010  2.71D-01  2.13D-01      6.9
                 2      -75.8034185448  2.57D-02  1.57D-02      7.0
                 3      -75.8034373786  3.06D-04  1.57D-04      7.2


         Total DFT energy =      -75.803437378557
      One electron energy =     -126.812206431970
           Coulomb energy =       47.217082701720
    Exchange-Corr. energy =       -7.747584068761
 Nuclear repulsion energy =       11.539270420453

 Numeric. integr. density =       10.000001014285

     Total iterative time =      0.5s



                       DFT Final Molecular Orbital Analysis
                       ------------------------------------

 Vector    2  Occ=2.000000D+00  E=-1.021531D+00
              MO Center= -7.0D-14, -3.7D-02, -6.5D-12, r^2= 5.1D-01
   Bfn.  Coefficient  Atom+Function         Bfn.  Coefficient  Atom+Function  
  ----- ------------  ---------------      ----- ------------  ---------------
     6      0.626563  1 O  s                  1     -0.235537  1 O  s          
     2      0.229288  1 O  s                 10      0.176392  2 H  s          
    12      0.176392  3 H  s          

 Vector    3  Occ=2.000000D+00  E=-6.795986D-01
              MO Center=  2.7D-27, -2.4D-02,  7.7D-12, r^2= 6.2D-01
   Bfn.  Coefficient  Atom+Function         Bfn.  Coefficient  Atom+Function  
  ----- ------------  ---------------      ----- ------------  ---------------
     5      0.446877  1 O  pz                10      0.280956  2 H  s          
    12     -0.280956  3 H  s                  9      0.243276  1 O  pz         

 Vector    4  Occ=2.000000D+00  E=-2.649012D-01
              MO Center= -1.8D-13,  4.7D-02,  2.0D-14, r^2= 5.3D-01
   Bfn.  Coefficient  Atom+Function         Bfn.  Coefficient  Atom+Function  
  ----- ------------  ---------------      ----- ------------  ---------------
     8      0.629182  1 O  py                 4      0.520223  1 O  py         

 Vector    5  Occ=2.000000D+00  E=-2.642213D-01
              MO Center=  2.1D-13,  2.5D-03,  1.8D-28, r^2= 5.4D-01
   Bfn.  Coefficient  Atom+Function         Bfn.  Coefficient  Atom+Function  
  ----- ------------  ---------------      ----- ------------  ---------------
     7      0.631702  1 O  px                 3      0.521721  1 O  px         

 Vector    6  Occ=0.000000D+00  E= 1.833820D-01
              MO Center=  2.4D-14, -8.5D-02, -8.5D-12, r^2= 2.4D+00
   Bfn.  Coefficient  Atom+Function         Bfn.  Coefficient  Atom+Function  
  ----- ------------  ---------------      ----- ------------  ---------------
     6      1.441919  1 O  s                 11     -0.994136  2 H  s          
    13     -0.994136  3 H  s          

 Vector    7  Occ=0.000000D+00  E= 2.566714D-01
              MO Center= -1.3D-28, -8.9D-02,  6.6D-12, r^2= 2.8D+00
   Bfn.  Coefficient  Atom+Function         Bfn.  Coefficient  Atom+Function  
  ----- ------------  ---------------      ----- ------------  ---------------
    11      1.401571  2 H  s                 13     -1.401571  3 H  s          
     9     -0.801380  1 O  pz                 5     -0.277546  1 O  pz         

 Vector    8  Occ=0.000000D+00  E= 8.818785D-01
              MO Center= -3.0D-14, -9.6D-02,  3.8D-12, r^2= 1.0D+00
   Bfn.  Coefficient  Atom+Function         Bfn.  Coefficient  Atom+Function  
  ----- ------------  ---------------      ----- ------------  ---------------
    10      0.997065  2 H  s                 12      0.997065  3 H  s          
     6     -0.756940  1 O  s                 11     -0.312840  2 H  s          
    13     -0.312840  3 H  s          

 Vector    9  Occ=0.000000D+00  E= 1.448586D+00
              MO Center=  5.8D-15,  2.5D-03,  5.3D-29, r^2= 7.2D-01
   Bfn.  Coefficient  Atom+Function         Bfn.  Coefficient  Atom+Function  
  ----- ------------  ---------------      ----- ------------  ---------------
     3      1.029055  1 O  px                 7     -0.965453  1 O  px         

 Vector   10  Occ=0.000000D+00  E= 1.449306D+00
              MO Center=  2.0D-14,  3.2D-02, -1.4D-14, r^2= 7.2D-01
   Bfn.  Coefficient  Atom+Function         Bfn.  Coefficient  Atom+Function  
  ----- ------------  ---------------      ----- ------------  ---------------
     4      1.029339  1 O  py                 8     -0.966479  1 O  py         

 Vector   11  Occ=0.000000D+00  E= 1.681322D+00
              MO Center= -3.0D-27, -3.2D-02, -4.5D-13, r^2= 9.8D-01
   Bfn.  Coefficient  Atom+Function         Bfn.  Coefficient  Atom+Function  
  ----- ------------  ---------------      ----- ------------  ---------------
     5      1.082323  1 O  pz                 9     -0.943723  1 O  pz         
    11      0.817979  2 H  s                 13     -0.817979  3 H  s          
    10     -0.437040  2 H  s                 12      0.437040  3 H  s          

 Vector   12  Occ=0.000000D+00  E= 2.010756D+00
              MO Center=  2.0D-27,  8.4D-02, -2.7D-12, r^2= 1.1D+00
   Bfn.  Coefficient  Atom+Function         Bfn.  Coefficient  Atom+Function  
  ----- ------------  ---------------      ----- ------------  ---------------
     9      2.626592  1 O  pz                10     -1.467084  2 H  s          
    12      1.467084  3 H  s                 11     -0.572651  2 H  s          
    13      0.572651  3 H  s                  5     -0.207451  1 O  pz         

 Vector   13  Occ=0.000000D+00  E= 2.811221D+00
              MO Center=  2.0D-14, -1.8D-02, -2.9D-14, r^2= 8.6D-01
   Bfn.  Coefficient  Atom+Function         Bfn.  Coefficient  Atom+Function  
  ----- ------------  ---------------      ----- ------------  ---------------
     6      2.227735  1 O  s                  2     -1.677841  1 O  s          
    11     -0.585407  2 H  s                 13     -0.585407  3 H  s          


 Parallel integral file used       4 records with       0 large values



                            NWChem DFT Gradient Module
                            --------------------------


                     NEB calculation of H2O Inversion Pathway



  charge          =   0.00
  wavefunction    = closed shell



                         DFT ENERGY GRADIENTS

    atom               coordinates                        gradient
                 x          y          z           x          y          z
[...]

 Vector   10  Occ=0.000000D+00  E= 1.438769D+00
              MO Center=  1.2D-09, -3.2D-01,  6.8D-10, r^2= 7.3D-01
   Bfn.  Coefficient  Atom+Function         Bfn.  Coefficient  Atom+Function  
  ----- ------------  ---------------      ----- ------------  ---------------
     3      1.024570  1 O  px                 7     -0.970803  1 O  px         

 Vector   11  Occ=0.000000D+00  E= 1.526652D+00
              MO Center=  5.0D-08, -4.8D-01,  7.6D-10, r^2= 7.6D-01
   Bfn.  Coefficient  Atom+Function         Bfn.  Coefficient  Atom+Function  
  ----- ------------  ---------------      ----- ------------  ---------------
     8      1.166855  1 O  py                 4     -0.985583  1 O  py         
    10     -0.315883  2 H  s                 12     -0.315883  3 H  s          
     6      0.156408  1 O  s          

 Vector   12  Occ=0.000000D+00  E= 1.645703D+00
              MO Center=  2.0D-08, -3.8D-01,  8.6D-10, r^2= 9.0D-01
   Bfn.  Coefficient  Atom+Function         Bfn.  Coefficient  Atom+Function  
  ----- ------------  ---------------      ----- ------------  ---------------
     9      1.426134  1 O  pz                 5     -1.034474  1 O  pz         
    11     -0.453448  2 H  s                 13      0.453448  3 H  s          
    10     -0.205231  2 H  s                 12      0.205231  3 H  s          

 Vector   13  Occ=0.000000D+00  E= 2.729576D+00
              MO Center= -9.3D-09, -1.3D-01,  4.6D-10, r^2= 7.4D-01
   Bfn.  Coefficient  Atom+Function         Bfn.  Coefficient  Atom+Function  
  ----- ------------  ---------------      ----- ------------  ---------------
     6      1.926501  1 O  s                  2     -1.626751  1 O  s          
     8      0.477991  1 O  py                11     -0.340319  2 H  s          
    13     -0.340319  3 H  s                 10     -0.276291  2 H  s          
    12     -0.276291  3 H  s                  4     -0.154290  1 O  py         


 Parallel integral file used       4 records with       0 large values



                            NWChem DFT Gradient Module
                            --------------------------


                     NEB calculation of H2O Inversion Pathway



  charge          =   0.00
  wavefunction    = closed shell



                         DFT ENERGY GRADIENTS

    atom               coordinates                        gradient
                 x          y          z           x          y          z
   1 O       0.000000  -0.599738   0.000000   -0.000000   0.000692  -0.000000
   2 H      -0.000000   0.554882   1.488303    0.000000  -0.000346   0.000882
   3 H      -0.000000   0.554882  -1.488303    0.000000  -0.000346  -0.000882

                 ----------------------------------------
                 |  Time  |  1-e(secs)   |  2-e(secs)   |
                 ----------------------------------------
                 |  CPU   |       0.00   |       0.03   |
                 ----------------------------------------
                 |  WALL  |       0.00   |       0.03   |
                 ----------------------------------------
 neb: finished bead                     5
 neb: final energy  -75.973959423001773     
 neb: running bead                     6

                                 NWChem DFT Module
                                 -----------------


                     NEB calculation of H2O Inversion Pathway


  Caching 1-el integrals 

            General Information
            -------------------
          SCF calculation type: DFT
          Wavefunction type:  closed shell.
          No. of atoms     :     3
          No. of electrons :    10
           Alpha electrons :     5
            Beta electrons :     5
          Charge           :     0
          Spin multiplicity:     1
          Use of symmetry is: off; symmetry adaption is: off
          Maximum number of iterations: ***
          AO basis - number of functions:    13
                     number of shells:     9
          Convergence on energy requested: 1.00D-06
          Convergence on density requested: 1.00D-05
          Convergence on gradient requested: 5.00D-04

              XC Information
              --------------
                         B3LYP Method XC Potential
                     Hartree-Fock (Exact) Exchange  0.200          
                        Slater Exchange Functional  0.800 local    
                    Becke 1988 Exchange Functional  0.720 non-local
              Lee-Yang-Parr Correlation Functional  0.810          
                  VWN I RPA Correlation Functional  0.190 local    

             Grid Information
             ----------------
          Grid used for XC integration:  medium    
          Radial quadrature: Mura-Knowles        
          Angular quadrature: Lebedev. 
          Tag              B.-S. Rad. Rad. Pts. Rad. Cut. Ang. Pts.
          ---              ---------- --------- --------- ---------
          O                   0.60       49           5.0       434
          H                   0.35       45           6.0       434
          Grid pruning is: on 
          Number of quadrature shells:   139
          Spatial weights used:  Erf1

          Convergence Information
          -----------------------
          Convergence aids based upon iterative change in 
          total energy or number of iterations. 
          Levelshifting, if invoked, occurs when the 
          HOMO/LUMO gap drops below (HL_TOL): 1.00D-02
          DIIS, if invoked, will attempt to extrapolate 
          using up to (NFOCK): 10 stored Fock matrices.

                    Damping( 0%)  Levelshifting(0.5)       DIIS
                  --------------- ------------------- ---------------
          dE  on:    start            ASAP                start   
          dE off:    2 iters        *** iters           *** iters 


      Screening Tolerance Information
      -------------------------------
          Density screening/tol_rho: 1.00D-10
          AO Gaussian exp screening on grid/accAOfunc:  14
          CD Gaussian exp screening on grid/accCDfunc:  20
          XC Gaussian exp screening on grid/accXCfunc:  20
          Schwarz screening/accCoul: 1.00D-08


 Loading old vectors from job with title :

NEB calculation of H2O Inversion Pathway



 ----------------------------------------------
         Quadratically convergent ROKS

 Convergence threshold     :          5.000E-04
 Maximum no. of iterations :         5001
 Final Fock-matrix accuracy:          1.000E-07
 ----------------------------------------------


 #quartets = 1.035D+03 #integrals = 2.527D+03 #direct =  0.0% #cached =100.0%


 Integral file          = ./perm2/h2o-neb.aoints.0
 Record size in doubles =  65536        No. of integs per rec  =  43688
 Max. records in memory =      2        Max. records in file   = 223703
 No. of bits per label  =      8        No. of bits per value  =     64


File balance: exchanges=     0  moved=     0  time=   0.0


 Grid_pts file          = ./perm2/h2o-neb.gridpts.0
 Record size in doubles =  12289        No. of grid_pts per rec  =   3070
 Max. records in memory =      7        Max. recs in file   =   1192991


              iter       energy          gnorm     gmax       time
             ----- ------------------- --------- --------- --------
                 1      -75.9727109391  1.75D-02  7.93D-03    239.0
                 2      -75.9727417444  6.40D-05  2.98D-05    239.4


         Total DFT energy =      -75.972741744382
      One electron energy =     -122.079659164230
           Coulomb energy =       44.842133470117
    Exchange-Corr. energy =       -7.540785788056
 Nuclear repulsion energy =        8.805569737787

 Numeric. integr. density =        9.999999696329

     Total iterative time =      1.1s



                       DFT Final Molecular Orbital Analysis
                       ------------------------------------

 Vector    2  Occ=2.000000D+00  E=-9.677720D-01
              MO Center= -2.0D-08, -1.4D-01,  3.2D-10, r^2= 5.2D-01
   Bfn.  Coefficient  Atom+Function         Bfn.  Coefficient  Atom+Function  
  ----- ------------  ---------------      ----- ------------  ---------------
     6      0.688313  1 O  s                  1     -0.227327  1 O  s          
     2      0.217682  1 O  s          

 Vector    3  Occ=2.000000D+00  E=-5.009591D-01
              MO Center=  6.2D-09, -1.2D-01,  4.3D-11, r^2= 8.6D-01
   Bfn.  Coefficient  Atom+Function         Bfn.  Coefficient  Atom+Function  
  ----- ------------  ---------------      ----- ------------  ---------------
     5      0.404055  1 O  pz                 9      0.341756  1 O  pz         
    10      0.232303  2 H  s                 12     -0.232303  3 H  s          
    11      0.204495  2 H  s                 13     -0.204495  3 H  s          

 Vector    4  Occ=2.000000D+00  E=-3.125461D-01
              MO Center=  1.0D-07, -4.5D-01,  4.7D-10, r^2= 6.6D-01
   Bfn.  Coefficient  Atom+Function         Bfn.  Coefficient  Atom+Function  
  ----- ------------  ---------------      ----- ------------  ---------------
     8      0.488808  1 O  py                 6     -0.456917  1 O  s          
     4      0.444390  1 O  py         

 Vector    5  Occ=2.000000D+00  E=-2.532146D-01
              MO Center= -4.1D-08, -3.5D-01,  4.1D-10, r^2= 5.3D-01
   Bfn.  Coefficient  Atom+Function         Bfn.  Coefficient  Atom+Function  
  ----- ------------  ---------------      ----- ------------  ---------------
     7      0.624299  1 O  px                 3      0.529577  1 O  px         

 Vector    6  Occ=0.000000D+00  E= 8.631107D-02
              MO Center= -1.9D-08,  2.6D-01, -8.3D-10, r^2= 2.0D+00
   Bfn.  Coefficient  Atom+Function         Bfn.  Coefficient  Atom+Function  
  ----- ------------  ---------------      ----- ------------  ---------------
     6      0.962260  1 O  s                 11     -0.802267  2 H  s          
    13     -0.802267  3 H  s                  8      0.452402  1 O  py         
     4      0.258587  1 O  py         

 Vector    7  Occ=0.000000D+00  E= 1.800380D-01
              MO Center= -7.3D-09,  2.0D-01,  6.4D-10, r^2= 2.2D+00
   Bfn.  Coefficient  Atom+Function         Bfn.  Coefficient  Atom+Function  
  ----- ------------  ---------------      ----- ------------  ---------------
    11      1.032898  2 H  s                 13     -1.032898  3 H  s          
     9     -0.740048  1 O  pz                 5     -0.372069  1 O  pz         

 Vector    8  Occ=0.000000D+00  E= 9.404553D-01
              MO Center= -2.5D-09,  9.1D-02, -3.8D-08, r^2= 1.7D+00
   Bfn.  Coefficient  Atom+Function         Bfn.  Coefficient  Atom+Function  
  ----- ------------  ---------------      ----- ------------  ---------------
    10      0.944193  2 H  s                 12     -0.944193  3 H  s          
    11     -0.801930  2 H  s                 13      0.801930  3 H  s          
     5     -0.246904  1 O  pz                 9     -0.241679  1 O  pz         

 Vector    9  Occ=0.000000D+00  E= 9.437020D-01
              MO Center=  6.3D-09,  2.6D-01,  3.7D-08, r^2= 1.3D+00
   Bfn.  Coefficient  Atom+Function         Bfn.  Coefficient  Atom+Function  
  ----- ------------  ---------------      ----- ------------  ---------------
    10      0.935515  2 H  s                 12      0.935515  3 H  s          
    11     -0.587744  2 H  s                 13     -0.587744  3 H  s          
     4     -0.270096  1 O  py                 8     -0.154054  1 O  py         

 Vector   10  Occ=0.000000D+00  E= 1.441843D+00
              MO Center=  3.5D-10, -3.5D-01,  4.1D-10, r^2= 7.3D-01
   Bfn.  Coefficient  Atom+Function         Bfn.  Coefficient  Atom+Function  
  ----- ------------  ---------------      ----- ------------  ---------------
     3      1.025034  1 O  px                 7     -0.970256  1 O  px         

 Vector   11  Occ=0.000000D+00  E= 1.513327D+00
              MO Center=  4.7D-08, -4.9D-01,  4.7D-10, r^2= 7.5D-01
   Bfn.  Coefficient  Atom+Function         Bfn.  Coefficient  Atom+Function  
  ----- ------------  ---------------      ----- ------------  ---------------
     8      1.136479  1 O  py                 4     -0.998660  1 O  py         
    10     -0.267646  2 H  s                 12     -0.267646  3 H  s          
     6      0.160719  1 O  s          

 Vector   12  Occ=0.000000D+00  E= 1.665505D+00
              MO Center=  1.9D-08, -4.3D-01,  5.1D-10, r^2= 9.0D-01
   Bfn.  Coefficient  Atom+Function         Bfn.  Coefficient  Atom+Function  
  ----- ------------  ---------------      ----- ------------  ---------------
     9      1.466945  1 O  pz                 5     -1.031685  1 O  pz         
    11     -0.434794  2 H  s                 13      0.434794  3 H  s          
    10     -0.249104  2 H  s                 12      0.249104  3 H  s          

 Vector   13  Occ=0.000000D+00  E= 2.720057D+00
              MO Center= -7.0D-09, -1.8D-01,  2.9D-10, r^2= 7.5D-01
   Bfn.  Coefficient  Atom+Function         Bfn.  Coefficient  Atom+Function  
  ----- ------------  ---------------      ----- ------------  ---------------
     6      1.915007  1 O  s                  2     -1.627044  1 O  s          
     8      0.421814  1 O  py                11     -0.349608  2 H  s          
    13     -0.349608  3 H  s                 10     -0.243981  2 H  s          
    12     -0.243981  3 H  s          


 Parallel integral file used       4 records with       0 large values



                            NWChem DFT Gradient Module
                            --------------------------


                     NEB calculation of H2O Inversion Pathway



  charge          =   0.00
  wavefunction    = closed shell



                         DFT ENERGY GRADIENTS

    atom               coordinates                        gradient
                 x          y          z           x          y          z
   1 O       0.000000  -0.660316   0.000000   -0.000000   0.011076  -0.000000
   2 H      -0.000000   0.414978   1.549609    0.000000  -0.005538   0.011233
   3 H      -0.000000   0.414978  -1.549609    0.000000  -0.005538  -0.011233

                 ----------------------------------------
                 |  Time  |  1-e(secs)   |  2-e(secs)   |
                 ----------------------------------------
                 |  CPU   |       0.00   |       0.01   |
                 ----------------------------------------
                 |  WALL  |       0.00   |       0.01   |
                 ----------------------------------------
 neb: finished bead                     6
 neb: final energy  -75.972741744382049     
 neb: running bead                     7

                                 NWChem DFT Module
                                 -----------------


                     NEB calculation of H2O Inversion Pathway


  Caching 1-el integrals 

            General Information
            -------------------
          SCF calculation type: DFT
          Wavefunction type:  closed shell.
          No. of atoms     :     3
          No. of electrons :    10
           Alpha electrons :     5
            Beta electrons :     5
          Charge           :     0
          Spin multiplicity:     1
          Use of symmetry is: off; symmetry adaption is: off
          Maximum number of iterations: ***
          AO basis - number of functions:    13
                     number of shells:     9
          Convergence on energy requested: 1.00D-06
          Convergence on density requested: 1.00D-05
          Convergence on gradient requested: 5.00D-04

              XC Information
              --------------
                         B3LYP Method XC Potential
                     Hartree-Fock (Exact) Exchange  0.200          
                        Slater Exchange Functional  0.800 local    
                    Becke 1988 Exchange Functional  0.720 non-local
              Lee-Yang-Parr Correlation Functional  0.810          
                  VWN I RPA Correlation Functional  0.190 local    

             Grid Information
             ----------------
          Grid used for XC integration:  medium    
          Radial quadrature: Mura-Knowles        
          Angular quadrature: Lebedev. 
          Tag              B.-S. Rad. Rad. Pts. Rad. Cut. Ang. Pts.
          ---              ---------- --------- --------- ---------
          O                   0.60       49           5.0       434
          H                   0.35       45           6.0       434
          Grid pruning is: on 
          Number of quadrature shells:   139
          Spatial weights used:  Erf1

          Convergence Information
          -----------------------
          Convergence aids based upon iterative change in 
          total energy or number of iterations. 
          Levelshifting, if invoked, occurs when the 
          HOMO/LUMO gap drops below (HL_TOL): 1.00D-02
          DIIS, if invoked, will attempt to extrapolate 
          using up to (NFOCK): 10 stored Fock matrices.

                    Damping( 0%)  Levelshifting(0.5)       DIIS
                  --------------- ------------------- ---------------
          dE  on:    start            ASAP                start   
          dE off:    2 iters        *** iters           *** iters 


      Screening Tolerance Information
      -------------------------------
          Density screening/tol_rho: 1.00D-10
          AO Gaussian exp screening on grid/accAOfunc:  14
          CD Gaussian exp screening on grid/accCDfunc:  20
          XC Gaussian exp screening on grid/accXCfunc:  20
          Schwarz screening/accCoul: 1.00D-08


 Loading old vectors from job with title :

NEB calculation of H2O Inversion Pathway



 ----------------------------------------------
         Quadratically convergent ROKS

 Convergence threshold     :          5.000E-04
 Maximum no. of iterations :         5001
 Final Fock-matrix accuracy:          1.000E-07
 ----------------------------------------------


 #quartets = 1.035D+03 #integrals = 2.581D+03 #direct =  0.0% #cached =100.0%


 Integral file          = ./perm2/h2o-neb.aoints.0
 Record size in doubles =  65536        No. of integs per rec  =  43688
 Max. records in memory =      2        Max. records in file   = 223703
 No. of bits per label  =      8        No. of bits per value  =     64


File balance: exchanges=     0  moved=     0  time=   0.0


 Grid_pts file          = ./perm2/h2o-neb.gridpts.0
 Record size in doubles =  12289        No. of grid_pts per rec  =   3070
 Max. records in memory =      7        Max. recs in file   =   1192991


              iter       energy          gnorm     gmax       time
             ----- ------------------- --------- --------- --------
                 1      -75.9650221386  1.19D-02  5.46D-03    241.4
                 2      -75.9650374582  4.59D-05  2.20D-05    242.7


         Total DFT energy =      -75.965037458156
      One electron energy =     -122.260313147716
           Coulomb energy =       44.980116224192
    Exchange-Corr. energy =       -7.549116795818
 Nuclear repulsion energy =        8.864276261186

 Numeric. integr. density =        9.999998419193

     Total iterative time =      2.4s



                       DFT Final Molecular Orbital Analysis
                       ------------------------------------

 Vector    2  Occ=2.000000D+00  E=-9.565867D-01
              MO Center= -2.6D-08, -1.4D-01,  2.3D-10, r^2= 5.3D-01
   Bfn.  Coefficient  Atom+Function         Bfn.  Coefficient  Atom+Function  
  ----- ------------  ---------------      ----- ------------  ---------------
     6      0.689060  1 O  s                  1     -0.228462  1 O  s          
     2      0.218771  1 O  s          

 Vector    3  Occ=2.000000D+00  E=-5.182749D-01
              MO Center=  8.5D-09, -1.3D-01, -4.7D-11, r^2= 8.6D-01
   Bfn.  Coefficient  Atom+Function         Bfn.  Coefficient  Atom+Function  
  ----- ------------  ---------------      ----- ------------  ---------------
