 argument  1 = HCN-dft.nw



============================== echo of input deck ==============================
#
# The initial path has the Carbon moving through the Nitrogen.
# So for this simulation to work that atom avoidance code needs to work.
# Because the initial path is so stiff the wavefunction optimizer needs to requires
# lots of iterations during the early stages of the path optimization.
#
#
Title "HCN --> HNC Zero-Temperature String Simulation"
echo
start hcn-hnc-dft

memory 1600 mb

permanent_dir ./perm
scratch_dir   ./perm

geometry noautoz noautosym
C         0.00000000     0.00000000    -0.49484657
N         0.00000000     0.00000000     0.64616359
H         0.00000000     0.00000000    -1.56151539
end

geometry endgeom  noautoz noautosym
C         0.00000000     0.00000000     0.73225318
N         0.00000000     0.00000000    -0.42552059
H         0.00000000     0.00000000    -1.42351006
end

#### Gaussian DFT ####
basis
* library 3-21G
end

dft
   xc b3lyp
   maxiter 501
end


string
   nhist 10
   nbeads 10
   maxiter 10
   stepsize 0.10
   print_shift 1

   # don't allow the end points of the path to move
   freeze1 .true.
   freezeN .true.
end
task dft string ignore


string
   # increase the number of images
   nbeads 20
   maxiter 20

   # allow the end points of the path to move
   freeze1 .false.
   freezeN .false.
end
task dft string ignore


================================================================================


                                         
                                         


             Northwest Computational Chemistry Package (NWChem) 6.1.1
             --------------------------------------------------------


                    Environmental Molecular Sciences Laboratory
                       Pacific Northwest National Laboratory
                                Richland, WA 99352

                              Copyright (c) 1994-2012
                       Pacific Northwest National Laboratory
                            Battelle Memorial Institute

             NWChem is an open-source computational chemistry package
                        distributed under the terms of the
                      Educational Community License (ECL) 2.0
             A copy of the license is included with this distribution
                              in the LICENSE.TXT file

                                  ACKNOWLEDGMENT
                                  --------------

            This software and its documentation were developed at the
            EMSL at Pacific Northwest National Laboratory, a multiprogram
            national laboratory, operated for the U.S. Department of Energy
            by Battelle under Contract Number DE-AC05-76RL01830. Support
            for this work was provided by the Department of Energy Office
            of Biological and Environmental Research, Office of Basic
            Energy Sciences, and the Office of Advanced Scientific Computing.


           Job information
           ---------------

    hostname        = WE24397
    program         = nwchem
    date            = Thu May 16 16:45:48 2013

    compiled        = Thu_May_16_16:03:06_2013
    source          = /Users/bylaska/nwchem-releases/nwchem
    nwchem branch   = Development
    nwchem revision = 24142
    ga revision     = 10354
    input           = HCN-dft.nw
    prefix          = hcn-hnc-dft.
    data base       = ./perm/hcn-hnc-dft.db
    status          = startup
    nproc           =        4
    time left       =     -1s



           Memory information
           ------------------

    heap     =   52428801 doubles =    400.0 Mbytes
    stack    =   52428801 doubles =    400.0 Mbytes
    global   =  104857600 doubles =    800.0 Mbytes (distinct from heap & stack)
    total    =  209715202 doubles =   1600.0 Mbytes
    verify   = yes
    hardfail = no 


           Directory information
           ---------------------

  0 permanent = ./perm
  0 scratch   = ./perm




                                NWChem Input Module
                                -------------------


                  HCN --> HNC Zero-Temperature String Simulation
                  ----------------------------------------------

 Scaling coordinates for geometry "geometry" by  1.889725989
 (inverse scale =  0.529177249)



                             Geometry "geometry" -> ""
                             -------------------------

 Output coordinates in angstroms (scale by  1.889725989 to convert to a.u.)

  No.       Tag          Charge          X              Y              Z
 ---- ---------------- ---------- -------------- -------------- --------------
    1 C                    6.0000     0.00000000     0.00000000    -0.49431445
    2 N                    7.0000     0.00000000     0.00000000     0.64669571
    3 H                    1.0000     0.00000000     0.00000000    -1.56098327

      Atomic Mass 
      ----------- 

      C                 12.000000
      N                 14.003070
      H                  1.007825


 Effective nuclear repulsion energy (a.u.)      24.1332489213

            Nuclear Dipole moment (a.u.) 
            ----------------------------
        X                 Y               Z
 ---------------- ---------------- ----------------
     0.0000000000     0.0000000000    -0.0000000000


            XYZ format geometry
            -------------------
     3
 geometry
 C                     0.00000000     0.00000000    -0.49431445
 N                     0.00000000     0.00000000     0.64669571
 H                     0.00000000     0.00000000    -1.56098327

 ==============================================================================
                                internuclear distances
 ------------------------------------------------------------------------------
       center one      |      center two      | atomic units |  angstroms
 ------------------------------------------------------------------------------
    2 N                |   1 C                |     2.15620  |     1.14101
    3 H                |   1 C                |     2.01571  |     1.06667
 ------------------------------------------------------------------------------
                         number of included internuclear distances:          2
 ==============================================================================



 ==============================================================================
                                 internuclear angles
 ------------------------------------------------------------------------------
        center 1       |       center 2       |       center 3       |  degrees
 ------------------------------------------------------------------------------
    2 N                |   1 C                |   3 H                |   180.00
 ------------------------------------------------------------------------------
                            number of included internuclear angles:          1
 ==============================================================================




 Scaling coordinates for geometry "endgeom" by  1.889725989
 (inverse scale =  0.529177249)



                         Geometry "endgeom" -> "        "
                         --------------------------------

 Output coordinates in angstroms (scale by  1.889725989 to convert to a.u.)

  No.       Tag          Charge          X              Y              Z
 ---- ---------------- ---------- -------------- -------------- --------------
    1 C                    6.0000     0.00000000     0.00000000     0.73286997
    2 N                    7.0000     0.00000000     0.00000000    -0.42490380
    3 H                    1.0000     0.00000000     0.00000000    -1.42289327

      Atomic Mass 
      ----------- 

      C                 12.000000
      N                 14.003070
      H                  1.007825


 Effective nuclear repulsion energy (a.u.)      24.3812364676

            Nuclear Dipole moment (a.u.) 
            ----------------------------
        X                 Y               Z
 ---------------- ---------------- ----------------
     0.0000000000     0.0000000000     0.0000000000


            XYZ format geometry
            -------------------
     3
 endgeom
 C                     0.00000000     0.00000000     0.73286997
 N                     0.00000000     0.00000000    -0.42490380
 H                     0.00000000     0.00000000    -1.42289327

 ==============================================================================
                                internuclear distances
 ------------------------------------------------------------------------------
       center one      |      center two      | atomic units |  angstroms
 ------------------------------------------------------------------------------
    2 N                |   1 C                |     2.18788  |     1.15777
    3 H                |   2 N                |     1.88593  |     0.99799
 ------------------------------------------------------------------------------
                         number of included internuclear distances:          2
 ==============================================================================



 ==============================================================================
                                 internuclear angles
 ------------------------------------------------------------------------------
        center 1       |       center 2       |       center 3       |  degrees
 ------------------------------------------------------------------------------
    1 C                |   2 N                |   3 H                |   180.00
 ------------------------------------------------------------------------------
                            number of included internuclear angles:          1
 ==============================================================================





 Summary of "ao basis" -> "" (cartesian)
 ------------------------------------------------------------------------------
       Tag                 Description            Shells   Functions and Types
 ---------------- ------------------------------  ------  ---------------------
 *                           3-21G                    on all atoms 


@zts
@zts String method.
@zts Temperature          =   0.00000
@zts Covergence Tolerance =   0.00010
@zts Step Size            =   0.10000
@zts Maximum Time Steps   =        10
@zts Number of replicas   =        10
@zts Number of histories  =        10
@zts String Interpolator  =         1
@zts First Replica        = frozen
@zts Last Replica         = frozen
@zts
@zts  Step     xrms     xmax        E start       E middle          E end          E max      E average
 string: running bead                     1

                                 NWChem DFT Module
                                 -----------------


                  HCN --> HNC Zero-Temperature String Simulation


                      Basis "ao basis" -> "ao basis" (cartesian)
                      -----
  C (Carbon)
  ----------
            Exponent  Coefficients 
       -------------- ---------------------------------------------------------
  1 S  1.72256000E+02  0.061767
  1 S  2.59109000E+01  0.358794
  1 S  5.53335000E+00  0.700713

  2 S  3.66498000E+00 -0.395897
  2 S  7.70545000E-01  1.215840

  3 P  3.66498000E+00  0.236460
  3 P  7.70545000E-01  0.860619

  4 S  1.95857000E-01  1.000000

  5 P  1.95857000E-01  1.000000

  N (Nitrogen)
  ------------
            Exponent  Coefficients 
       -------------- ---------------------------------------------------------
  1 S  2.42766000E+02  0.059866
  1 S  3.64851000E+01  0.352955
  1 S  7.81449000E+00  0.706513

  2 S  5.42522000E+00 -0.413301
  2 S  1.14915000E+00  1.224420

  3 P  5.42522000E+00  0.237972
  3 P  1.14915000E+00  0.858953

  4 S  2.83205000E-01  1.000000

  5 P  2.83205000E-01  1.000000

  H (Hydrogen)
  ------------
            Exponent  Coefficients 
       -------------- ---------------------------------------------------------
  1 S  5.44717800E+00  0.156285
  1 S  8.24547000E-01  0.904691

  2 S  1.83192000E-01  1.000000



 Summary of "ao basis" -> "ao basis" (cartesian)
 ------------------------------------------------------------------------------
       Tag                 Description            Shells   Functions and Types
 ---------------- ------------------------------  ------  ---------------------
 C                           3-21G                   5        9   3s2p
 N                           3-21G                   5        9   3s2p
 H                           3-21G                   2        2   2s


  Caching 1-el integrals 

            General Information
            -------------------
          SCF calculation type: DFT
          Wavefunction type:  closed shell.
          No. of atoms     :     3
          No. of electrons :    14
           Alpha electrons :     7
            Beta electrons :     7
          Charge           :     0
          Spin multiplicity:     1
          Use of symmetry is: off; symmetry adaption is: off
          Maximum number of iterations: 501
          AO basis - number of functions:    20
                     number of shells:    12
          Convergence on energy requested: 1.00D-06
          Convergence on density requested: 1.00D-05
          Convergence on gradient requested: 5.00D-04

              XC Information
              --------------
                         B3LYP Method XC Potential
                     Hartree-Fock (Exact) Exchange  0.200          
                        Slater Exchange Functional  0.800 local    
                    Becke 1988 Exchange Functional  0.720 non-local
              Lee-Yang-Parr Correlation Functional  0.810          
                  VWN I RPA Correlation Functional  0.190 local    

             Grid Information
             ----------------
          Grid used for XC integration:  medium    
          Radial quadrature: Mura-Knowles        
          Angular quadrature: Lebedev. 
          Tag              B.-S. Rad. Rad. Pts. Rad. Cut. Ang. Pts.
          ---              ---------- --------- --------- ---------
          C                   0.70       49           5.0       434
          N                   0.65       49           7.0       434
          H                   0.35       45           6.0       434
          Grid pruning is: on 
          Number of quadrature shells:   143
          Spatial weights used:  Erf1

          Convergence Information
          -----------------------
          Convergence aids based upon iterative change in 
          total energy or number of iterations. 
          Levelshifting, if invoked, occurs when the 
          HOMO/LUMO gap drops below (HL_TOL): 1.00D-02
          DIIS, if invoked, will attempt to extrapolate 
          using up to (NFOCK): 10 stored Fock matrices.

                    Damping( 0%)  Levelshifting(0.5)       DIIS
                  --------------- ------------------- ---------------
          dE  on:    start            ASAP                start   
          dE off:    2 iters        501 iters           501 iters 


      Screening Tolerance Information
      -------------------------------
          Density screening/tol_rho: 1.00D-10
          AO Gaussian exp screening on grid/accAOfunc:  14
          CD Gaussian exp screening on grid/accCDfunc:  20
          XC Gaussian exp screening on grid/accXCfunc:  20
          Schwarz screening/accCoul: 1.00D-08


      Superposition of Atomic Density Guess
      -------------------------------------

 Sum of atomic energies:         -91.97332266

      Non-variational initial energy
      ------------------------------

 Total energy =     -92.642362
 1-e energy   =    -171.393269
 2-e energy   =      54.617658
 HOMO         =      -0.432737
 LUMO         =       0.080259

   Time after variat. SCF:      0.1
   Time prior to 1st pass:      0.1

 #quartets = 3.068D+03 #integrals = 7.538D+03 #direct =  0.0% #cached =100.0%


 Integral file          = ./perm/hcn-hnc-dft.aoints.0
 Record size in doubles =  65536        No. of integs per rec  =  43688
 Max. records in memory =      2        Max. records in file   = 303030
 No. of bits per label  =      8        No. of bits per value  =     64


File balance: exchanges=     0  moved=     0  time=   0.0


 Grid_pts file          = ./perm/hcn-hnc-dft.gridpts.0
 Record size in doubles =  12289        No. of grid_pts per rec  =   3070
 Max. records in memory =      7        Max. recs in file   =   1616034


           Memory utilization after 1st SCF pass: 
           Heap Space remaining (MW):       52.21            52210396
          Stack Space remaining (MW):       52.43            52426198

   convergence    iter        energy       DeltaE   RMS-Dens  Diis-err    time
 ---------------- ----- ----------------- --------- --------- ---------  ------
 d= 0,ls=0.0,diis     1    -92.8362455578 -1.17D+02  5.43D-02  5.35D-01     0.3
 d= 0,ls=0.0,diis     2    -92.6224643462  2.14D-01  3.90D-02  2.48D+00     0.3
 d= 0,ls=0.0,diis     3    -92.9055940959 -2.83D-01  3.82D-03  1.14D-02     0.4
 d= 0,ls=0.0,diis     4    -92.9066024328 -1.01D-03  1.03D-03  6.42D-04     0.4
 d= 0,ls=0.0,diis     5    -92.9066786695 -7.62D-05  2.16D-04  2.77D-05     0.4
  Resetting Diis
 d= 0,ls=0.0,diis     6    -92.9066824129 -3.74D-06  2.75D-05  6.89D-07     0.5
 d= 0,ls=0.0,diis     7    -92.9066824930 -8.00D-08  7.80D-06  9.80D-09     0.5


         Total DFT energy =      -92.906682492970
      One electron energy =     -172.556655593471
           Coulomb energy =       68.097431548085
    Exchange-Corr. energy =      -12.580707368873
 Nuclear repulsion energy =       24.133248921289

 Numeric. integr. density =       14.000000194584

     Total iterative time =      0.4s



                       DFT Final Molecular Orbital Analysis
                       ------------------------------------

 Vector    1  Occ=2.000000D+00  E=-1.427373D+01
              MO Center=  7.2D-14, -4.1D-17,  6.5D-01, r^2= 2.0D-02
   Bfn.  Coefficient  Atom+Function         Bfn.  Coefficient  Atom+Function  
  ----- ------------  ---------------      ----- ------------  ---------------
    10      0.985363  2 N  s          

 Vector    2  Occ=2.000000D+00  E=-1.017464D+01
              MO Center= -6.8D-13,  7.0D-18, -4.9D-01, r^2= 2.8D-02
   Bfn.  Coefficient  Atom+Function         Bfn.  Coefficient  Atom+Function  
  ----- ------------  ---------------      ----- ------------  ---------------
     1      0.984569  1 C  s          

 Vector    3  Occ=2.000000D+00  E=-9.511420D-01
              MO Center= -8.8D-12, -3.0D-16,  1.8D-01, r^2= 5.2D-01
   Bfn.  Coefficient  Atom+Function         Bfn.  Coefficient  Atom+Function  
  ----- ------------  ---------------      ----- ------------  ---------------
    15      0.608160  2 N  s                  5      0.215847  1 C  pz         
    14     -0.200342  2 N  pz                10     -0.195728  2 N  s          
    11      0.187908  2 N  s                  2      0.174037  1 C  s          
    18     -0.161909  2 N  pz                 1     -0.157748  1 C  s          

 Vector    4  Occ=2.000000D+00  E=-6.005932D-01
              MO Center= -8.2D-11,  1.5D-16, -1.1D+00, r^2= 7.7D-01
   Bfn.  Coefficient  Atom+Function         Bfn.  Coefficient  Atom+Function  
  ----- ------------  ---------------      ----- ------------  ---------------
     6      0.397251  1 C  s                  5     -0.309466  1 C  pz         
    19      0.288469  3 H  s                  9     -0.186040  1 C  pz         
    15     -0.170273  2 N  s                 20      0.152224  3 H  s          

 Vector    5  Occ=2.000000D+00  E=-3.677229D-01
              MO Center=  1.5D-09,  6.6D-14,  1.0D-01, r^2= 1.1D+00
   Bfn.  Coefficient  Atom+Function         Bfn.  Coefficient  Atom+Function  
  ----- ------------  ---------------      ----- ------------  ---------------
    12      0.378856  2 N  px                 3      0.366286  1 C  px         
    16      0.331389  2 N  px                 7      0.326007  1 C  px         

 Vector    6  Occ=2.000000D+00  E=-3.677229D-01
              MO Center=  3.0D-18, -7.0D-14,  1.0D-01, r^2= 1.1D+00
   Bfn.  Coefficient  Atom+Function         Bfn.  Coefficient  Atom+Function  
  ----- ------------  ---------------      ----- ------------  ---------------
    13      0.378856  2 N  py                 4      0.366286  1 C  py         
    17      0.331389  2 N  py                 8      0.326007  1 C  py         

 Vector    7  Occ=2.000000D+00  E=-3.642602D-01
              MO Center= -1.4D-09,  4.5D-15,  8.4D-01, r^2= 7.5D-01
   Bfn.  Coefficient  Atom+Function         Bfn.  Coefficient  Atom+Function  
  ----- ------------  ---------------      ----- ------------  ---------------
    15      0.561286  2 N  s                 14      0.418505  2 N  pz         
    18      0.361777  2 N  pz                 5     -0.236307  1 C  pz         
    20      0.154420  3 H  s          

 Vector    8  Occ=0.000000D+00  E= 3.672532D-02
              MO Center=  6.2D-11, -9.3D-16, -4.7D-03, r^2= 1.4D+00
   Bfn.  Coefficient  Atom+Function         Bfn.  Coefficient  Atom+Function  
  ----- ------------  ---------------      ----- ------------  ---------------
     7      0.686705  1 C  px                16     -0.651221  2 N  px         
    12     -0.402255  2 N  px                 3      0.381501  1 C  px         

 Vector    9  Occ=0.000000D+00  E= 3.672532D-02
              MO Center=  2.1D-20,  1.4D-15, -4.7D-03, r^2= 1.4D+00
   Bfn.  Coefficient  Atom+Function         Bfn.  Coefficient  Atom+Function  
  ----- ------------  ---------------      ----- ------------  ---------------
     8      0.686705  1 C  py                17     -0.651221  2 N  py         
    13     -0.402255  2 N  py                 4      0.381501  1 C  py         

 Vector   10  Occ=0.000000D+00  E= 1.017140D-01
              MO Center= -1.1D-10, -3.5D-16, -1.5D+00, r^2= 1.6D+00
   Bfn.  Coefficient  Atom+Function         Bfn.  Coefficient  Atom+Function  
  ----- ------------  ---------------      ----- ------------  ---------------
    20     -1.696445  3 H  s                  6      1.686960  1 C  s          
     9     -0.525792  1 C  pz                18      0.252824  2 N  pz         
     5     -0.239954  1 C  pz                15     -0.235186  2 N  s          
    19     -0.176634  3 H  s                 14      0.170793  2 N  pz         

 Vector   11  Occ=0.000000D+00  E= 3.666512D-01
              MO Center=  3.4D-11, -8.7D-16, -5.8D-01, r^2= 2.8D+00
   Bfn.  Coefficient  Atom+Function         Bfn.  Coefficient  Atom+Function  
  ----- ------------  ---------------      ----- ------------  ---------------
     9      2.965845  1 C  pz                15     -2.940039  2 N  s          
    20      1.984782  3 H  s                  6      1.506384  1 C  s          
    18      1.226074  2 N  pz                19     -0.338834  3 H  s          
     2     -0.179480  1 C  s                  5      0.154138  1 C  pz         

 Vector   12  Occ=0.000000D+00  E= 6.933128D-01
              MO Center= -3.4D-11, -4.7D-16, -5.5D-01, r^2= 1.4D+00
   Bfn.  Coefficient  Atom+Function         Bfn.  Coefficient  Atom+Function  
  ----- ------------  ---------------      ----- ------------  ---------------
     7     -1.067573  1 C  px                 3      1.050592  1 C  px         

 Vector   13  Occ=0.000000D+00  E= 6.933128D-01
              MO Center= -6.5D-21,  4.7D-16, -5.5D-01, r^2= 1.4D+00
   Bfn.  Coefficient  Atom+Function         Bfn.  Coefficient  Atom+Function  
  ----- ------------  ---------------      ----- ------------  ---------------
     8     -1.067573  1 C  py                 4      1.050592  1 C  py         

 Vector   14  Occ=0.000000D+00  E= 8.582278D-01
              MO Center=  3.4D-12, -1.0D-15, -4.8D-01, r^2= 1.8D+00
   Bfn.  Coefficient  Atom+Function         Bfn.  Coefficient  Atom+Function  
  ----- ------------  ---------------      ----- ------------  ---------------
     9      2.381081  1 C  pz                15     -1.035726  2 N  s          
    20      0.955107  3 H  s                  5     -0.879975  1 C  pz         
    19      0.657892  3 H  s                  6     -0.339328  1 C  s          
    14     -0.171720  2 N  pz         

 Vector   15  Occ=0.000000D+00  E= 1.002238D+00
              MO Center=  2.6D-12, -1.9D-16,  1.1D-01, r^2= 2.7D+00
   Bfn.  Coefficient  Atom+Function         Bfn.  Coefficient  Atom+Function  
  ----- ------------  ---------------      ----- ------------  ---------------
    18      1.572585  2 N  pz                 6      1.453116  1 C  s          
    15     -1.383494  2 N  s                 19      0.861097  3 H  s          
     9      0.781036  1 C  pz                 5      0.590411  1 C  pz         
    20     -0.566999  3 H  s                 14     -0.493259  2 N  pz         
     2      0.194757  1 C  s                 11     -0.159000  2 N  s          

 Vector   16  Occ=0.000000D+00  E= 1.139498D+00
              MO Center= -3.5D-12,  8.6D-17,  6.6D-01, r^2= 1.2D+00
   Bfn.  Coefficient  Atom+Function         Bfn.  Coefficient  Atom+Function  
  ----- ------------  ---------------      ----- ------------  ---------------
    16      1.200313  2 N  px                12     -1.043945  2 N  px         
     7     -0.473875  1 C  px         

 Vector   17  Occ=0.000000D+00  E= 1.139498D+00
              MO Center=  1.2D-19,  4.9D-15,  6.6D-01, r^2= 1.2D+00
   Bfn.  Coefficient  Atom+Function         Bfn.  Coefficient  Atom+Function  
  ----- ------------  ---------------      ----- ------------  ---------------
    17      1.200313  2 N  py                13     -1.043945  2 N  py         
     8     -0.473875  1 C  py         


 center of mass
 --------------
 x =   0.00000000 y =   0.00000000 z =   0.10849326

 moments of inertia (a.u.)
 ------------------
          39.835806514419           0.000000000000           0.000000000000
           0.000000000000          39.835806514419           0.000000000000
           0.000000000000           0.000000000000           0.000000000000

     Multipole analysis of the density
     ---------------------------------

     L   x y z        total         alpha         beta         nuclear
     -   - - -        -----         -----         ----         -------
     0   0 0 0     -0.000000     -7.000000     -7.000000     14.000000

     1   1 0 0     -0.000000     -0.000000     -0.000000      0.000000
     1   0 1 0      0.000000      0.000000      0.000000      0.000000
     1   0 0 1     -1.074292     -0.537146     -0.537146     -0.000000

     2   2 0 0     -8.402889     -4.201445     -4.201445      0.000000
     2   1 1 0     -0.000000     -0.000000     -0.000000      0.000000
     2   1 0 1     -0.000000     -0.000000     -0.000000      0.000000
     2   0 2 0     -8.402889     -4.201445     -4.201445      0.000000
     2   0 1 1      0.000000      0.000000      0.000000      0.000000
     2   0 0 2     -7.440105    -15.915696    -15.915696     24.391286


 Parallel integral file used       4 records with       0 large values



                            NWChem DFT Gradient Module
                            --------------------------


                  HCN --> HNC Zero-Temperature String Simulation



  charge          =   0.00
  wavefunction    = closed shell



                         DFT ENERGY GRADIENTS

    atom               coordinates                        gradient
                 x          y          z           x          y          z
   1 C       0.000000   0.000000  -0.934119   -0.000000   0.000000   0.053910
   2 N       0.000000   0.000000   1.222078   -0.000000  -0.000000  -0.050869
   3 H       0.000000   0.000000  -2.949831    0.000000   0.000000  -0.003042

                 ----------------------------------------
                 |  Time  |  1-e(secs)   |  2-e(secs)   |
                 ----------------------------------------
                 |  CPU   |       0.00   |       0.07   |
                 ----------------------------------------
                 |  WALL  |       0.00   |       0.08   |
                 ----------------------------------------
string: finished bead   1 energy=        -92.906682
 string: running bead                     2

                                 NWChem DFT Module
                                 -----------------


                  HCN --> HNC Zero-Temperature String Simulation


  Caching 1-el integrals 

            General Information
            -------------------
          SCF calculation type: DFT
          Wavefunction type:  closed shell.
          No. of atoms     :     3
          No. of electrons :    14
           Alpha electrons :     7
            Beta electrons :     7
          Charge           :     0
          Spin multiplicity:     1
          Use of symmetry is: off; symmetry adaption is: off
          Maximum number of iterations: 501
          AO basis - number of functions:    20
                     number of shells:    12
          Convergence on energy requested: 1.00D-06
          Convergence on density requested: 1.00D-05
          Convergence on gradient requested: 5.00D-04

              XC Information
              --------------
                         B3LYP Method XC Potential
                     Hartree-Fock (Exact) Exchange  0.200          
                        Slater Exchange Functional  0.800 local    
                    Becke 1988 Exchange Functional  0.720 non-local
              Lee-Yang-Parr Correlation Functional  0.810          
                  VWN I RPA Correlation Functional  0.190 local    

             Grid Information
             ----------------
          Grid used for XC integration:  medium    
          Radial quadrature: Mura-Knowles        
          Angular quadrature: Lebedev. 
          Tag              B.-S. Rad. Rad. Pts. Rad. Cut. Ang. Pts.
          ---              ---------- --------- --------- ---------
          C                   0.70       49           5.0       434
          N                   0.65       49           7.0       434
          H                   0.35       45           6.0       434
          Grid pruning is: on 
          Number of quadrature shells:   143
          Spatial weights used:  Erf1

          Convergence Information
          -----------------------
          Convergence aids based upon iterative change in 
          total energy or number of iterations. 
          Levelshifting, if invoked, occurs when the 
          HOMO/LUMO gap drops below (HL_TOL): 1.00D-02
          DIIS, if invoked, will attempt to extrapolate 
          using up to (NFOCK): 10 stored Fock matrices.

                    Damping( 0%)  Levelshifting(0.5)       DIIS
                  --------------- ------------------- ---------------
          dE  on:    start            ASAP                start   
          dE off:    2 iters        501 iters           501 iters 


      Screening Tolerance Information
      -------------------------------
          Density screening/tol_rho: 1.00D-10
          AO Gaussian exp screening on grid/accAOfunc:  14
          CD Gaussian exp screening on grid/accCDfunc:  20
          XC Gaussian exp screening on grid/accXCfunc:  20
          Schwarz screening/accCoul: 1.00D-08


 Loading old vectors from job with title :

HCN --> HNC Zero-Temperature String Simulation

   Time after variat. SCF:      0.7
   Time prior to 1st pass:      0.7

 #quartets = 3.078D+03 #integrals = 7.549D+03 #direct =  0.0% #cached =100.0%


 Integral file          = ./perm/hcn-hnc-dft.aoints.0
 Record size in doubles =  65536        No. of integs per rec  =  43688
 Max. records in memory =      2        Max. records in file   = 303030
 No. of bits per label  =      8        No. of bits per value  =     64


File balance: exchanges=     0  moved=     0  time=   0.0


 Grid_pts file          = ./perm/hcn-hnc-dft.gridpts.0
 Record size in doubles =  12289        No. of grid_pts per rec  =   3070
 Max. records in memory =      7        Max. recs in file   =   1616034


           Memory utilization after 1st SCF pass: 
           Heap Space remaining (MW):       52.21            52210396
          Stack Space remaining (MW):       52.43            52426198

   convergence    iter        energy       DeltaE   RMS-Dens  Diis-err    time
 ---------------- ----- ----------------- --------- --------- ---------  ------
 d= 0,ls=0.0,diis     1    -92.7852605774 -1.20D+02  2.35D-02  2.13D-01     1.1
 d= 0,ls=0.0,diis     2    -92.8017398417 -1.65D-02  1.24D-02  5.10D-02     1.1
 d= 0,ls=0.0,diis     3    -92.8051592191 -3.42D-03  4.80D-03  1.97D-02     1.1
 d= 0,ls=0.0,diis     4    -92.8067845372 -1.63D-03  1.36D-03  3.56D-03     1.2
 d= 0,ls=0.0,diis     5    -92.8071618610 -3.77D-04  1.04D-04  2.61D-06     1.2
  Resetting Diis
 d= 0,ls=0.0,diis     6    -92.8071622319 -3.71D-07  1.49D-05  1.44D-07     1.2
 d= 0,ls=0.0,diis     7    -92.8071622498 -1.79D-08  8.04D-07  5.26D-11     1.3


         Total DFT energy =      -92.807162249834
      One electron energy =     -178.372883666887
           Coulomb energy =       71.135781070807
    Exchange-Corr. energy =      -12.776673494945
 Nuclear repulsion energy =       27.206613841191

 Numeric. integr. density =       13.999999821055

     Total iterative time =      0.5s



                       DFT Final Molecular Orbital Analysis
                       ------------------------------------

 Vector    1  Occ=2.000000D+00  E=-1.423027D+01
              MO Center= -1.6D-17,  3.1D-17,  5.1D-01, r^2= 2.0D-02
   Bfn.  Coefficient  Atom+Function         Bfn.  Coefficient  Atom+Function  
  ----- ------------  ---------------      ----- ------------  ---------------
    10      0.985492  2 N  s          

 Vector    2  Occ=2.000000D+00  E=-1.013905D+01
              MO Center= -7.8D-18,  9.6D-20, -4.8D-01, r^2= 2.8D-02
   Bfn.  Coefficient  Atom+Function         Bfn.  Coefficient  Atom+Function  
  ----- ------------  ---------------      ----- ------------  ---------------
     1      0.984719  1 C  s          

 Vector    3  Occ=2.000000D+00  E=-1.004526D+00
              MO Center= -6.5D-16, -6.0D-17,  9.0D-02, r^2= 4.4D-01
   Bfn.  Coefficient  Atom+Function         Bfn.  Coefficient  Atom+Function  
  ----- ------------  ---------------      ----- ------------  ---------------
    15      0.590358  2 N  s                  5      0.252838  1 C  pz         
    14     -0.226454  2 N  pz                10     -0.206357  2 N  s          
    11      0.190222  2 N  s                  1     -0.180248  1 C  s          
     2      0.179848  1 C  s          

 Vector    4  Occ=2.000000D+00  E=-5.800317D-01
              MO Center= -1.5D-15, -7.9D-17, -1.1D+00, r^2= 6.9D-01
   Bfn.  Coefficient  Atom+Function         Bfn.  Coefficient  Atom+Function  
  ----- ------------  ---------------      ----- ------------  ---------------
     6      0.376249  1 C  s                  5     -0.329565  1 C  pz         
    19      0.290380  3 H  s                  9     -0.198810  1 C  pz         
    20      0.170829  3 H  s          

 Vector    5  Occ=2.000000D+00  E=-4.077224D-01
              MO Center=  1.3D-17, -2.1D-16,  3.7D-02, r^2= 9.3D-01
   Bfn.  Coefficient  Atom+Function         Bfn.  Coefficient  Atom+Function  
  ----- ------------  ---------------      ----- ------------  ---------------
     4      0.387763  1 C  py                13      0.388121  2 N  py         
    17      0.302005  2 N  py                 8      0.288093  1 C  py         

 Vector    6  Occ=2.000000D+00  E=-4.077224D-01
              MO Center=  1.4D-15,  9.0D-17,  3.7D-02, r^2= 9.3D-01
   Bfn.  Coefficient  Atom+Function         Bfn.  Coefficient  Atom+Function  
  ----- ------------  ---------------      ----- ------------  ---------------
     3      0.387763  1 C  px                12      0.388121  2 N  px         
    16      0.302005  2 N  px                 7      0.288093  1 C  px         

 Vector    7  Occ=2.000000D+00  E=-3.432903D-01
              MO Center=  4.1D-16,  6.3D-17,  8.0D-01, r^2= 6.0D-01
   Bfn.  Coefficient  Atom+Function         Bfn.  Coefficient  Atom+Function  
  ----- ------------  ---------------      ----- ------------  ---------------
    15      0.483214  2 N  s                 14      0.438066  2 N  pz         
    18      0.389706  2 N  pz                 5     -0.207066  1 C  pz         

 Vector    8  Occ=0.000000D+00  E= 1.050219D-01
              MO Center=  7.3D-17, -1.1D-15, -1.0D-01, r^2= 1.5D+00
   Bfn.  Coefficient  Atom+Function         Bfn.  Coefficient  Atom+Function  
  ----- ------------  ---------------      ----- ------------  ---------------
     8      0.835432  1 C  py                17     -0.760589  2 N  py         
    13     -0.393693  2 N  py                 4      0.341510  1 C  py         

 Vector    9  Occ=0.000000D+00  E= 1.050219D-01
              MO Center= -2.5D-14, -1.7D-15, -1.0D-01, r^2= 1.5D+00
   Bfn.  Coefficient  Atom+Function         Bfn.  Coefficient  Atom+Function  
  ----- ------------  ---------------      ----- ------------  ---------------
     7      0.835432  1 C  px                16     -0.760589  2 N  px         
    12     -0.393693  2 N  px                 3      0.341510  1 C  px         

 Vector   10  Occ=0.000000D+00  E= 1.071694D-01
              MO Center=  2.4D-14,  3.0D-15, -1.6D+00, r^2= 1.4D+00
   Bfn.  Coefficient  Atom+Function         Bfn.  Coefficient  Atom+Function  
  ----- ------------  ---------------      ----- ------------  ---------------
     6      1.692020  1 C  s                 20     -1.700306  3 H  s          
     9     -0.543105  1 C  pz                 5     -0.277346  1 C  pz         
    15     -0.264686  2 N  s                 18      0.201284  2 N  pz         
    19     -0.168413  3 H  s          

 Vector   11  Occ=0.000000D+00  E= 3.624681D-01
              MO Center=  2.8D-15,  2.2D-16, -4.9D-01, r^2= 2.8D+00
   Bfn.  Coefficient  Atom+Function         Bfn.  Coefficient  Atom+Function  
  ----- ------------  ---------------      ----- ------------  ---------------
    15      3.702460  2 N  s                  9     -3.230831  1 C  pz         
     6     -2.197865  1 C  s                 20     -1.871291  3 H  s          
    18     -1.092954  2 N  pz                19      0.303444  3 H  s          
     2      0.157792  1 C  s          

 Vector   12  Occ=0.000000D+00  E= 6.804199D-01
              MO Center= -2.1D-15, -2.5D-16, -4.7D-01, r^2= 1.5D+00
   Bfn.  Coefficient  Atom+Function         Bfn.  Coefficient  Atom+Function  
  ----- ------------  ---------------      ----- ------------  ---------------
     3      1.035954  1 C  px                 7     -1.000426  1 C  px         

 Vector   13  Occ=0.000000D+00  E= 6.804199D-01
              MO Center= -1.0D-16,  8.5D-16, -4.7D-01, r^2= 1.5D+00
   Bfn.  Coefficient  Atom+Function         Bfn.  Coefficient  Atom+Function  
  ----- ------------  ---------------      ----- ------------  ---------------
     4      1.035954  1 C  py                 8     -1.000426  1 C  py         

 Vector   14  Occ=0.000000D+00  E= 9.064418D-01
              MO Center= -7.1D-16,  5.4D-16, -7.1D-01, r^2= 1.9D+00
   Bfn.  Coefficient  Atom+Function         Bfn.  Coefficient  Atom+Function  
  ----- ------------  ---------------      ----- ------------  ---------------
     9      2.227258  1 C  pz                19      0.868107  3 H  s          
    15     -0.816033  2 N  s                 20      0.788705  3 H  s          
     5     -0.709798  1 C  pz                 6     -0.633919  1 C  s          
    18     -0.513471  2 N  pz         

 Vector   15  Occ=0.000000D+00  E= 9.495489D-01
              MO Center=  8.6D-16,  1.4D-16,  9.5D-02, r^2= 2.7D+00
   Bfn.  Coefficient  Atom+Function         Bfn.  Coefficient  Atom+Function  
  ----- ------------  ---------------      ----- ------------  ---------------
     6      2.176775  1 C  s                 15     -1.882739  2 N  s          
    18      1.730227  2 N  pz                20     -0.803075  3 H  s          
    19      0.751418  3 H  s                  9      0.619581  1 C  pz         
    14     -0.562387  2 N  pz                 5      0.515048  1 C  pz         

 Vector   16  Occ=0.000000D+00  E= 1.173250D+00
              MO Center= -5.6D-16, -2.2D-15,  5.0D-01, r^2= 1.2D+00
   Bfn.  Coefficient  Atom+Function         Bfn.  Coefficient  Atom+Function  
  ----- ------------  ---------------      ----- ------------  ---------------
    17      1.230734  2 N  py                13     -1.016176  2 N  py         
     8     -0.600062  1 C  py                16      0.318157  2 N  px         
    12     -0.262692  2 N  px                 4      0.192578  1 C  py         
     7     -0.155122  1 C  px         

 Vector   17  Occ=0.000000D+00  E= 1.173250D+00
              MO Center= -3.1D-16,  8.1D-17,  5.0D-01, r^2= 1.2D+00
   Bfn.  Coefficient  Atom+Function         Bfn.  Coefficient  Atom+Function  
  ----- ------------  ---------------      ----- ------------  ---------------
    16      1.230734  2 N  px                12     -1.016176  2 N  px         
     7     -0.600062  1 C  px                17     -0.318157  2 N  py         
    13      0.262692  2 N  py                 3      0.192578  1 C  px         
     8      0.155122  1 C  py         


 center of mass
 --------------
 x =   0.00000000 y =   0.00000000 z =  -0.00752468

 moments of inertia (a.u.)
 ------------------
          31.591271186700           0.000000000000           0.000000000000
           0.000000000000          31.591271186700           0.000000000000
           0.000000000000           0.000000000000           0.000000000000

     Multipole analysis of the density
     ---------------------------------

     L   x y z        total         alpha         beta         nuclear
     -   - - -        -----         -----         ----         -------
     0   0 0 0     -0.000000     -7.000000     -7.000000     14.000000

     1   1 0 0      0.000000      0.000000      0.000000      0.000000
     1   0 1 0      0.000000      0.000000      0.000000      0.000000
     1   0 0 1     -1.082390      0.242025      0.242025     -1.566440

     2   2 0 0     -8.009528     -4.004764     -4.004764      0.000000
     2   1 1 0      0.000000      0.000000      0.000000      0.000000
     2   1 0 1     -0.000000     -0.000000     -0.000000      0.000000
     2   0 2 0     -8.009528     -4.004764     -4.004764      0.000000
     2   0 1 1     -0.000000     -0.000000     -0.000000      0.000000
     2   0 0 2     -7.199728    -13.655568    -13.655568     20.111408


 Parallel integral file used       4 records with       0 large values



                            NWChem DFT Gradient Module
                            --------------------------


                  HCN --> HNC Zero-Temperature String Simulation



  charge          =   0.00
  wavefunction    = closed shell



                         DFT ENERGY GRADIENTS

    atom               coordinates                        gradient
                 x          y          z           x          y          z
   1 C       0.000000   0.000000  -0.898979    0.000000  -0.000000   0.759569
   2 N       0.000000   0.000000   0.968168   -0.000000   0.000000  -0.738280
   3 H       0.000000   0.000000  -2.949742    0.000000  -0.000000  -0.021289

                 ----------------------------------------
                 |  Time  |  1-e(secs)   |  2-e(secs)   |
                 ----------------------------------------
                 |  CPU   |       0.00   |       0.07   |
                 ----------------------------------------
                 |  WALL  |       0.00   |       0.07   |
                 ----------------------------------------
string: finished bead   2 energy=        -92.807162
 string: running bead                     3

                                 NWChem DFT Module
                                 -----------------


                  HCN --> HNC Zero-Temperature String Simulation


  Caching 1-el integrals 

            General Information
            -------------------
          SCF calculation type: DFT
          Wavefunction type:  closed shell.
          No. of atoms     :     3
          No. of electrons :    14
           Alpha electrons :     7
            Beta electrons :     7
          Charge           :     0
          Spin multiplicity:     1
          Use of symmetry is: off; symmetry adaption is: off
          Maximum number of iterations: 501
          AO basis - number of functions:    20
                     number of shells:    12
          Convergence on energy requested: 1.00D-06
          Convergence on density requested: 1.00D-05
          Convergence on gradient requested: 5.00D-04

              XC Information
              --------------
                         B3LYP Method XC Potential
                     Hartree-Fock (Exact) Exchange  0.200          
                        Slater Exchange Functional  0.800 local    
                    Becke 1988 Exchange Functional  0.720 non-local
              Lee-Yang-Parr Correlation Functional  0.810          
                  VWN I RPA Correlation Functional  0.190 local    

             Grid Information
             ----------------
          Grid used for XC integration:  medium    
          Radial quadrature: Mura-Knowles        
          Angular quadrature: Lebedev. 
          Tag              B.-S. Rad. Rad. Pts. Rad. Cut. Ang. Pts.
          ---              ---------- --------- --------- ---------
          C                   0.70       49           5.0       434
          N                   0.65       49           6.0       434
          H                   0.35       45           6.0       434
          Grid pruning is: on 
          Number of quadrature shells:   143
          Spatial weights used:  Erf1

          Convergence Information
          -----------------------
          Convergence aids based upon iterative change in 
          total energy or number of iterations. 
          Levelshifting, if invoked, occurs when the 
          HOMO/LUMO gap drops below (HL_TOL): 1.00D-02
          DIIS, if invoked, will attempt to extrapolate 
          using up to (NFOCK): 10 stored Fock matrices.

                    Damping( 0%)  Levelshifting(0.5)       DIIS
                  --------------- ------------------- ---------------
          dE  on:    start            ASAP                start   
          dE off:    2 iters        501 iters           501 iters 


      Screening Tolerance Information
      -------------------------------
          Density screening/tol_rho: 1.00D-10
          AO Gaussian exp screening on grid/accAOfunc:  14
          CD Gaussian exp screening on grid/accCDfunc:  20
          XC Gaussian exp screening on grid/accXCfunc:  20
          Schwarz screening/accCoul: 1.00D-08


 Loading old vectors from job with title :

HCN --> HNC Zero-Temperature String Simulation

   Time after variat. SCF:      1.5
   Time prior to 1st pass:      1.5

 #quartets = 3.079D+03 #integrals = 7.551D+03 #direct =  0.0% #cached =100.0%


 Integral file          = ./perm/hcn-hnc-dft.aoints.0
 Record size in doubles =  65536        No. of integs per rec  =  43688
 Max. records in memory =      2        Max. records in file   = 303030
 No. of bits per label  =      8        No. of bits per value  =     64


File balance: exchanges=     0  moved=     0  time=   0.0


 Grid_pts file          = ./perm/hcn-hnc-dft.gridpts.0
 Record size in doubles =  12289        No. of grid_pts per rec  =   3070
 Max. records in memory =      7        Max. recs in file   =   1616034


           Memory utilization after 1st SCF pass: 
           Heap Space remaining (MW):       52.21            52210396
          Stack Space remaining (MW):       52.43            52426198

   convergence    iter        energy       DeltaE   RMS-Dens  Diis-err    time
 ---------------- ----- ----------------- --------- --------- ---------  ------
 d= 0,ls=0.0,diis     1    -92.3534756336 -1.24D+02  2.41D-02  3.24D-01     2.0
 d= 0,ls=0.0,diis     2    -92.3753219730 -2.18D-02  1.73D-02  9.71D-02     2.0
 d= 0,ls=0.0,diis     3    -92.3841232467 -8.80D-03  4.74D-03  1.35D-02     2.0
 d= 0,ls=0.0,diis     4    -92.3852028355 -1.08D-03  1.28D-03  2.36D-03     2.1
 d= 0,ls=0.0,diis     5    -92.3854344138 -2.32D-04  1.20D-04  4.22D-06     2.1
  Resetting Diis
 d= 0,ls=0.0,diis     6    -92.3854350210 -6.07D-07  1.12D-05  4.79D-08     2.2
 d= 0,ls=0.0,diis     7    -92.3854350278 -6.79D-09  8.29D-07  2.88D-11     2.3


         Total DFT energy =      -92.385435027755
      One electron energy =     -185.732940351137
           Coulomb energy =       74.996236825559
    Exchange-Corr. energy =      -13.050144215580
 Nuclear repulsion energy =       31.401412713403

 Numeric. integr. density =       14.000000006975

     Total iterative time =      0.7s



                       DFT Final Molecular Orbital Analysis
                       ------------------------------------

 Vector    1  Occ=2.000000D+00  E=-1.419530D+01
              MO Center= -2.7D-17, -1.9D-15,  3.8D-01, r^2= 2.1D-02
   Bfn.  Coefficient  Atom+Function         Bfn.  Coefficient  Atom+Function  
  ----- ------------  ---------------      ----- ------------  ---------------
    10      0.985546  2 N  s          

 Vector    2  Occ=2.000000D+00  E=-1.011924D+01
              MO Center= -1.4D-17,  2.9D-15, -4.6D-01, r^2= 2.9D-02
   Bfn.  Coefficient  Atom+Function         Bfn.  Coefficient  Atom+Function  
  ----- ------------  ---------------      ----- ------------  ---------------
     1      0.985456  1 C  s          

 Vector    3  Occ=2.000000D+00  E=-1.020212D+00
              MO Center=  1.9D-16, -2.3D-13,  1.7D-02, r^2= 4.0D-01
   Bfn.  Coefficient  Atom+Function         Bfn.  Coefficient  Atom+Function  
  ----- ------------  ---------------      ----- ------------  ---------------
    15      0.549695  2 N  s                  5      0.281798  1 C  pz         
    14     -0.247028  2 N  pz                10     -0.230583  2 N  s          
     1     -0.218305  1 C  s                 11      0.190632  2 N  s          
     2      0.178302  1 C  s          

 Vector    4  Occ=2.000000D+00  E=-5.568801D-01
              MO Center= -3.4D-16, -4.8D-12, -1.2D+00, r^2= 6.5D-01
   Bfn.  Coefficient  Atom+Function         Bfn.  Coefficient  Atom+Function  
  ----- ------------  ---------------      ----- ------------  ---------------
     5      0.350447  1 C  pz                 6     -0.338031  1 C  s          
    19     -0.290828  3 H  s                  9      0.205788  1 C  pz         
    20     -0.195895  3 H  s          

 Vector    5  Occ=2.000000D+00  E=-4.623122D-01
              MO Center= -1.0D-16, -4.1D-20, -2.5D-02, r^2= 7.9D-01
   Bfn.  Coefficient  Atom+Function         Bfn.  Coefficient  Atom+Function  
  ----- ------------  ---------------      ----- ------------  ---------------
     3      0.417191  1 C  px                12      0.407513  2 N  px         
    16      0.264724  2 N  px                 7      0.240024  1 C  px         

 Vector    6  Occ=2.000000D+00  E=-4.623122D-01
              MO Center=  4.1D-16, -1.0D-12, -2.5D-02, r^2= 7.9D-01
   Bfn.  Coefficient  Atom+Function         Bfn.  Coefficient  Atom+Function  
  ----- ------------  ---------------      ----- ------------  ---------------
     4      0.417191  1 C  py                13      0.407513  2 N  py         
    17      0.264724  2 N  py                 8      0.240024  1 C  py         

 Vector    7  Occ=2.000000D+00  E=-3.143894D-01
              MO Center= -7.6D-17,  1.1D-12,  7.2D-01, r^2= 5.3D-01
   Bfn.  Coefficient  Atom+Function         Bfn.  Coefficient  Atom+Function  
  ----- ------------  ---------------      ----- ------------  ---------------
    14      0.466972  2 N  pz                18      0.405075  2 N  pz         
    15      0.368758  2 N  s                  9      0.199046  1 C  pz         
     5     -0.187524  1 C  pz         

 Vector    8  Occ=0.000000D+00  E= 1.132323D-01
              MO Center=  2.0D-16,  5.7D-13, -1.6D+00, r^2= 1.4D+00
   Bfn.  Coefficient  Atom+Function         Bfn.  Coefficient  Atom+Function  
  ----- ------------  ---------------      ----- ------------  ---------------
    20     -1.704061  3 H  s                  6      1.674335  1 C  s          
     9     -0.586100  1 C  pz                 5     -0.298014  1 C  pz         
    15     -0.283264  2 N  s                 19     -0.159617  3 H  s          
    18      0.150367  2 N  pz         

 Vector    9  Occ=0.000000D+00  E= 1.818088D-01
              MO Center=  8.7D-16, -1.5D-21, -2.6D-01, r^2= 1.6D+00
   Bfn.  Coefficient  Atom+Function         Bfn.  Coefficient  Atom+Function  
  ----- ------------  ---------------      ----- ------------  ---------------
     7      1.074520  1 C  px                16     -0.908080  2 N  px         
    12     -0.378280  2 N  px                 3      0.266387  1 C  px         

 Vector   10  Occ=0.000000D+00  E= 1.818088D-01
              MO Center= -2.1D-17, -1.2D-11, -2.6D-01, r^2= 1.6D+00
   Bfn.  Coefficient  Atom+Function         Bfn.  Coefficient  Atom+Function  
  ----- ------------  ---------------      ----- ------------  ---------------
     8      1.074520  1 C  py                17     -0.908080  2 N  py         
    13     -0.378280  2 N  py                 4      0.266387  1 C  py         

 Vector   11  Occ=0.000000D+00  E= 3.623564D-01
              MO Center= -1.7D-15,  6.5D-11, -3.5D-01, r^2= 2.8D+00
   Bfn.  Coefficient  Atom+Function         Bfn.  Coefficient  Atom+Function  
  ----- ------------  ---------------      ----- ------------  ---------------
    15      4.349141  2 N  s                  9     -3.245703  1 C  pz         
     6     -2.877481  1 C  s                 20     -1.649618  3 H  s          
    18     -0.852298  2 N  pz                19      0.274233  3 H  s          

 Vector   12  Occ=0.000000D+00  E= 6.630029D-01
              MO Center= -7.6D-16, -3.9D-11, -3.1D-01, r^2= 1.5D+00
   Bfn.  Coefficient  Atom+Function         Bfn.  Coefficient  Atom+Function  
  ----- ------------  ---------------      ----- ------------  ---------------
     4      1.023113  1 C  py                 8     -0.830193  1 C  py         
    17     -0.267815  2 N  py         

 Vector   13  Occ=0.000000D+00  E= 6.630029D-01
              MO Center=  8.9D-16, -1.7D-20, -3.1D-01, r^2= 1.5D+00
   Bfn.  Coefficient  Atom+Function         Bfn.  Coefficient  Atom+Function  
  ----- ------------  ---------------      ----- ------------  ---------------
     3      1.023113  1 C  px                 7     -0.830193  1 C  px         
    16     -0.267815  2 N  px         

 Vector   14  Occ=0.000000D+00  E= 8.836976D-01
              MO Center=  2.6D-16, -4.9D-12, -1.1D-01, r^2= 2.7D+00
   Bfn.  Coefficient  Atom+Function         Bfn.  Coefficient  Atom+Function  
  ----- ------------  ---------------      ----- ------------  ---------------
     6      2.802561  1 C  s                 15     -2.056070  2 N  s          
    18      1.828611  2 N  pz                20     -1.249420  3 H  s          
    19      0.575340  3 H  s                  5      0.569173  1 C  pz         
    14     -0.498903  2 N  pz         

 Vector   15  Occ=0.000000D+00  E= 9.450429D-01
              MO Center=  9.1D-16,  2.5D-12, -9.5D-01, r^2= 1.7D+00
   Bfn.  Coefficient  Atom+Function         Bfn.  Coefficient  Atom+Function  
  ----- ------------  ---------------      ----- ------------  ---------------
     9      2.315594  1 C  pz                15     -1.122725  2 N  s          
    19      1.050699  3 H  s                 20      0.605599  3 H  s          
     5     -0.524579  1 C  pz                18     -0.453856  2 N  pz         
     6     -0.326179  1 C  s          

 Vector   16  Occ=0.000000D+00  E= 1.232092D+00
              MO Center=  6.4D-16,  2.0D-11,  2.9D-01, r^2= 1.2D+00
   Bfn.  Coefficient  Atom+Function         Bfn.  Coefficient  Atom+Function  
  ----- ------------  ---------------      ----- ------------  ---------------
    17      1.340187  2 N  py                13     -1.064976  2 N  py         
     8     -0.810310  1 C  py                 4      0.359726  1 C  py         

 Vector   17  Occ=0.000000D+00  E= 1.232092D+00
              MO Center=  8.7D-15, -2.7D-19,  2.9D-01, r^2= 1.2D+00
   Bfn.  Coefficient  Atom+Function         Bfn.  Coefficient  Atom+Function  
  ----- ------------  ---------------      ----- ------------  ---------------
    16      1.340187  2 N  px                12     -1.064976  2 N  px         
     7     -0.810310  1 C  px                 3      0.359726  1 C  px         


 center of mass
 --------------
 x =   0.00000000 y =   0.00000000 z =  -0.12354261

 moments of inertia (a.u.)
 ------------------
          24.454786001256           0.000000000000           0.000000000000
           0.000000000000          24.454786001256           0.000000000000
           0.000000000000           0.000000000000           0.000000000000

     Multipole analysis of the density
     ---------------------------------

     L   x y z        total         alpha         beta         nuclear
     -   - - -        -----         -----         ----         -------
     0   0 0 0     -0.000000     -7.000000     -7.000000     14.000000

     1   1 0 0     -0.000000     -0.000000     -0.000000      0.000000
     1   0 1 0      0.000000      0.000000      0.000000      0.000000
     1   0 0 1     -1.052246      1.040317      1.040317     -3.132881

     2   2 0 0     -7.535181     -3.767591     -3.767591      0.000000
     2   1 1 0     -0.000000     -0.000000     -0.000000      0.000000
     2   1 0 1     -0.000000     -0.000000     -0.000000      0.000000
     2   0 2 0     -7.535181     -3.767591     -3.767591      0.000000
     2   0 1 1     -0.000000     -0.000000     -0.000000      0.000000
     2   0 0 2     -6.857162    -11.803045    -11.803045     16.748929


 Parallel integral file used       4 records with       0 large values



                            NWChem DFT Gradient Module
                            --------------------------


                  HCN --> HNC Zero-Temperature String Simulation



  charge          =   0.00
  wavefunction    = closed shell



                         DFT ENERGY GRADIENTS

    atom               coordinates                        gradient
                 x          y          z           x          y          z
   1 C       0.000000   0.000000  -0.863840   -0.000000   0.000000   2.453338
   2 N       0.000000   0.000000   0.714259    0.000000  -0.000000  -2.416169
   3 H       0.000000   0.000000  -2.949654    0.000000  -0.000000  -0.037169

                 ----------------------------------------
                 |  Time  |  1-e(secs)   |  2-e(secs)   |
                 ----------------------------------------
                 |  CPU   |       0.00   |       0.06   |
                 ----------------------------------------
                 |  WALL  |       0.00   |       0.06   |
                 ----------------------------------------
string: finished bead   3 energy=        -92.385435
 string: running bead                     4

                                 NWChem DFT Module
                                 -----------------


                  HCN --> HNC Zero-Temperature String Simulation


  Caching 1-el integrals 

            General Information
            -------------------
          SCF calculation type: DFT
          Wavefunction type:  closed shell.
          No. of atoms     :     3
          No. of electrons :    14
           Alpha electrons :     7
            Beta electrons :     7
          Charge           :     0
          Spin multiplicity:     1
          Use of symmetry is: off; symmetry adaption is: off
          Maximum number of iterations: 501
          AO basis - number of functions:    20
                     number of shells:    12
          Convergence on energy requested: 1.00D-06
          Convergence on density requested: 1.00D-05
          Convergence on gradient requested: 5.00D-04

              XC Information
              --------------
                         B3LYP Method XC Potential
                     Hartree-Fock (Exact) Exchange  0.200          
                        Slater Exchange Functional  0.800 local    
                    Becke 1988 Exchange Functional  0.720 non-local
              Lee-Yang-Parr Correlation Functional  0.810          
                  VWN I RPA Correlation Functional  0.190 local    

             Grid Information
             ----------------
          Grid used for XC integration:  medium    
          Radial quadrature: Mura-Knowles        
          Angular quadrature: Lebedev. 
          Tag              B.-S. Rad. Rad. Pts. Rad. Cut. Ang. Pts.
          ---              ---------- --------- --------- ---------
          C                   0.70       49           5.0       434
          N                   0.65       49           6.0       434
          H                   0.35       45           6.0       434
          Grid pruning is: on 
          Number of quadrature shells:   143
          Spatial weights used:  Erf1

          Convergence Information
          -----------------------
          Convergence aids based upon iterative change in 
          total energy or number of iterations. 
          Levelshifting, if invoked, occurs when the 
          HOMO/LUMO gap drops below (HL_TOL): 1.00D-02
          DIIS, if invoked, will attempt to extrapolate 
          using up to (NFOCK): 10 stored Fock matrices.

                    Damping( 0%)  Levelshifting(0.5)       DIIS
                  --------------- ------------------- ---------------
          dE  on:    start            ASAP                start   
          dE off:    2 iters        501 iters           501 iters 


      Screening Tolerance Information
      -------------------------------
          Density screening/tol_rho: 1.00D-10
          AO Gaussian exp screening on grid/accAOfunc:  14
          CD Gaussian exp screening on grid/accCDfunc:  20
          XC Gaussian exp screening on grid/accXCfunc:  20
          Schwarz screening/accCoul: 1.00D-08


 Loading old vectors from job with title :

HCN --> HNC Zero-Temperature String Simulation

   Time after variat. SCF:      2.5
   Time prior to 1st pass:      2.5

 #quartets = 3.081D+03 #integrals = 7.553D+03 #direct =  0.0% #cached =100.0%


 Integral file          = ./perm/hcn-hnc-dft.aoints.0
 Record size in doubles =  65536        No. of integs per rec  =  43688
 Max. records in memory =      2        Max. records in file   = 303030
 No. of bits per label  =      8        No. of bits per value  =     64


File balance: exchanges=     0  moved=     0  time=   0.0


 Grid_pts file          = ./perm/hcn-hnc-dft.gridpts.0
 Record size in doubles =  12289        No. of grid_pts per rec  =   3070
 Max. records in memory =      7        Max. recs in file   =   1616034


           Memory utilization after 1st SCF pass: 
           Heap Space remaining (MW):       52.21            52210396
          Stack Space remaining (MW):       52.43            52426198

   convergence    iter        energy       DeltaE   RMS-Dens  Diis-err    time
 ---------------- ----- ----------------- --------- --------- ---------  ------
 d= 0,ls=0.0,diis     1    -91.1392707988 -1.29D+02  2.55D-02  4.70D-01     2.8
 d= 0,ls=0.0,diis     2    -91.1707381780 -3.15D-02  2.24D-02  1.60D-01     2.8
 d= 0,ls=0.0,diis     3    -91.1861795277 -1.54D-02  5.22D-03  1.09D-02     2.9
 d= 0,ls=0.0,diis     4    -91.1871680700 -9.89D-04  1.02D-03  1.01D-03     2.9
 d= 0,ls=0.0,diis     5    -91.1872585651 -9.05D-05  1.05D-04  5.07D-06     2.9
  Resetting Diis
 d= 0,ls=0.0,diis     6    -91.1872593104 -7.45D-07  7.38D-06  1.07D-08     3.0
 d= 0,ls=0.0,diis     7    -91.1872593125 -2.04D-09  5.77D-07  1.20D-11     3.0


         Total DFT energy =      -91.187259312473
      One electron energy =     -195.043911307015
           Coulomb energy =       79.813382500346
    Exchange-Corr. energy =      -13.420757826016
 Nuclear repulsion energy =       37.464027320211

 Numeric. integr. density =       14.000001625607

     Total iterative time =      0.5s



                       DFT Final Molecular Orbital Analysis
                       ------------------------------------

 Vector    1  Occ=2.000000D+00  E=-1.423328D+01
              MO Center= -4.5D-17,  1.1D-16,  2.4D-01, r^2= 2.1D-02
   Bfn.  Coefficient  Atom+Function         Bfn.  Coefficient  Atom+Function  
  ----- ------------  ---------------      ----- ------------  ---------------
    10      0.985671  2 N  s          

 Vector    2  Occ=2.000000D+00  E=-1.018393D+01
              MO Center=  3.2D-17,  1.2D-18, -4.4D-01, r^2= 2.9D-02
   Bfn.  Coefficient  Atom+Function         Bfn.  Coefficient  Atom+Function  
  ----- ------------  ---------------      ----- ------------  ---------------
     1      0.984459  1 C  s          

 Vector    3  Occ=2.000000D+00  E=-9.399827D-01
              MO Center= -1.0D-15, -1.2D-15, -4.5D-02, r^2= 4.3D-01
   Bfn.  Coefficient  Atom+Function         Bfn.  Coefficient  Atom+Function  
  ----- ------------  ---------------      ----- ------------  ---------------
    15      0.532640  2 N  s                  5      0.287637  1 C  pz         
     1     -0.275982  1 C  s                 10     -0.269177  2 N  s          
    14     -0.233358  2 N  pz                11      0.177961  2 N  s          
     2      0.165711  1 C  s          

 Vector    4  Occ=2.000000D+00  E=-5.450740D-01
              MO Center=  4.1D-16,  1.1D-15, -8.8D-02, r^2= 6.4D-01
   Bfn.  Coefficient  Atom+Function         Bfn.  Coefficient  Atom+Function  
  ----- ------------  ---------------      ----- ------------  ---------------
     4      0.421836  1 C  py                13      0.409272  2 N  py         
    17      0.193780  2 N  py                 8      0.172473  1 C  py         
     3      0.158765  1 C  px                12      0.154037  2 N  px         

 Vector    5  Occ=2.000000D+00  E=-5.450740D-01
              MO Center= -3.8D-16,  1.4D-16, -8.8D-02, r^2= 6.4D-01
   Bfn.  Coefficient  Atom+Function         Bfn.  Coefficient  Atom+Function  
  ----- ------------  ---------------      ----- ------------  ---------------
     3      0.421836  1 C  px                12      0.409272  2 N  px         
    16      0.193780  2 N  px                 7      0.172473  1 C  px         
     4     -0.158765  1 C  py                13     -0.154037  2 N  py         

 Vector    6  Occ=2.000000D+00  E=-5.280663D-01
              MO Center=  7.6D-16, -2.0D-16, -1.2D+00, r^2= 6.6D-01
   Bfn.  Coefficient  Atom+Function         Bfn.  Coefficient  Atom+Function  
  ----- ------------  ---------------      ----- ------------  ---------------
     5      0.382098  1 C  pz                19     -0.290761  3 H  s          
     6     -0.279277  1 C  s                 20     -0.234379  3 H  s          
     9      0.194796  1 C  pz         

 Vector    7  Occ=2.000000D+00  E=-2.616251D-01
              MO Center= -9.6D-18,  2.0D-16,  5.8D-01, r^2= 5.2D-01
   Bfn.  Coefficient  Atom+Function         Bfn.  Coefficient  Atom+Function  
  ----- ------------  ---------------      ----- ------------  ---------------
    14      0.515668  2 N  pz                18      0.407966  2 N  pz         
    15      0.256951  2 N  s                  9      0.237918  1 C  pz         
     5     -0.226458  1 C  pz                 1      0.155297  1 C  s          

 Vector    8  Occ=0.000000D+00  E= 1.244678D-01
              MO Center=  2.4D-17, -4.5D-16, -1.6D+00, r^2= 1.4D+00
   Bfn.  Coefficient  Atom+Function         Bfn.  Coefficient  Atom+Function  
  ----- ------------  ---------------      ----- ------------  ---------------
    20     -1.738424  3 H  s                  6      1.583331  1 C  s          
     9     -0.707269  1 C  pz                 5     -0.321794  1 C  pz         
    15     -0.225161  2 N  s          

 Vector    9  Occ=0.000000D+00  E= 2.501962D-01
              MO Center= -9.8D-16, -4.4D-16, -4.8D-01, r^2= 1.8D+00
   Bfn.  Coefficient  Atom+Function         Bfn.  Coefficient  Atom+Function  
  ----- ------------  ---------------      ----- ------------  ---------------
     7      1.276544  1 C  px                16     -0.955870  2 N  px         
     8      0.566831  1 C  py                17     -0.424440  2 N  py         
    12     -0.320712  2 N  px         

 Vector   10  Occ=0.000000D+00  E= 2.501962D-01
              MO Center=  2.0D-15, -4.6D-15, -4.8D-01, r^2= 1.8D+00
   Bfn.  Coefficient  Atom+Function         Bfn.  Coefficient  Atom+Function  
  ----- ------------  ---------------      ----- ------------  ---------------
     8      1.276544  1 C  py                17     -0.955870  2 N  py         
     7     -0.566831  1 C  px                16      0.424440  2 N  px         
    13     -0.320712  2 N  py         

 Vector   11  Occ=0.000000D+00  E= 3.724783D-01
              MO Center= -3.3D-15,  4.4D-15, -1.8D-01, r^2= 2.7D+00
   Bfn.  Coefficient  Atom+Function         Bfn.  Coefficient  Atom+Function  
  ----- ------------  ---------------      ----- ------------  ---------------
    15      4.881454  2 N  s                  6     -3.606082  1 C  s          
     9     -3.046484  1 C  pz                20     -1.293913  3 H  s          
    18     -0.575210  2 N  pz                19      0.248538  3 H  s          
    10     -0.151835  2 N  s          

 Vector   12  Occ=0.000000D+00  E= 6.511094D-01
              MO Center=  2.0D-15,  5.6D-17, -4.5D-02, r^2= 1.4D+00
   Bfn.  Coefficient  Atom+Function         Bfn.  Coefficient  Atom+Function  
  ----- ------------  ---------------      ----- ------------  ---------------
     3      0.978127  1 C  px                16     -0.708360  2 N  px         
     7     -0.427218  1 C  px         

 Vector   13  Occ=0.000000D+00  E= 6.511094D-01
              MO Center= -3.8D-17,  1.4D-15, -4.5D-02, r^2= 1.4D+00
   Bfn.  Coefficient  Atom+Function         Bfn.  Coefficient  Atom+Function  
  ----- ------------  ---------------      ----- ------------  ---------------
     4      0.978127  1 C  py                17     -0.708360  2 N  py         
     8     -0.427218  1 C  py         

 Vector   14  Occ=0.000000D+00  E= 8.258644D-01
              MO Center= -2.6D-16, -5.1D-16, -5.6D-01, r^2= 2.7D+00
   Bfn.  Coefficient  Atom+Function         Bfn.  Coefficient  Atom+Function  
  ----- ------------  ---------------      ----- ------------  ---------------
     6      3.038892  1 C  s                 15     -1.908479  2 N  s          
    18      1.813011  2 N  pz                20     -1.694177  3 H  s          
     9     -0.854644  1 C  pz                19      0.580202  3 H  s          
     5      0.533474  1 C  pz                14     -0.440133  2 N  pz         

 Vector   15  Occ=0.000000D+00  E= 9.752291D-01
              MO Center=  2.7D-16, -6.8D-16, -1.0D+00, r^2= 1.7D+00
   Bfn.  Coefficient  Atom+Function         Bfn.  Coefficient  Atom+Function  
  ----- ------------  ---------------      ----- ------------  ---------------
     9      2.475600  1 C  pz                15     -1.233940  2 N  s          
    19      1.069691  3 H  s                 18     -0.661145  2 N  pz         
    20      0.649918  3 H  s                  5     -0.484360  1 C  pz         
     6     -0.316833  1 C  s                  2      0.183417  1 C  s          

 Vector   16  Occ=0.000000D+00  E= 1.292558D+00
              MO Center=  3.0D-15, -1.9D-15, -1.5D-01, r^2= 1.8D+00
   Bfn.  Coefficient  Atom+Function         Bfn.  Coefficient  Atom+Function  
  ----- ------------  ---------------      ----- ------------  ---------------
     2      1.113293  1 C  s                 18      0.993126  2 N  pz         
    20      0.779955  3 H  s                  6     -0.745817  1 C  s          
    14     -0.572177  2 N  pz                 5     -0.548611  1 C  pz         
    19     -0.482722  3 H  s                  9      0.306227  1 C  pz         
    11     -0.162860  2 N  s          

 Vector   17  Occ=0.000000D+00  E= 1.339846D+00
              MO Center= -3.0D-15, -2.2D-16,  4.6D-02, r^2= 1.2D+00
   Bfn.  Coefficient  Atom+Function         Bfn.  Coefficient  Atom+Function  
  ----- ------------  ---------------      ----- ------------  ---------------
    16      1.373202  2 N  px                12     -1.103869  2 N  px         
     7     -1.001830  1 C  px                 3      0.577166  1 C  px         


 center of mass
 --------------
 x =   0.00000000 y =   0.00000000 z =  -0.23956055

 moments of inertia (a.u.)
 ------------------
          18.426350958088           0.000000000000           0.000000000000
           0.000000000000          18.426350958088           0.000000000000
           0.000000000000           0.000000000000           0.000000000000

     Multipole analysis of the density
     ---------------------------------

     L   x y z        total         alpha         beta         nuclear
     -   - - -        -----         -----         ----         -------
     0   0 0 0     -0.000000     -7.000000     -7.000000     14.000000

     1   1 0 0      0.000000      0.000000      0.000000      0.000000
     1   0 1 0     -0.000000     -0.000000     -0.000000      0.000000
     1   0 0 1     -0.972495      1.863413      1.863413     -4.699321

     2   2 0 0     -6.963604     -3.481802     -3.481802      0.000000
     2   1 1 0     -0.000000     -0.000000     -0.000000      0.000000
     2   1 0 1      0.000000      0.000000      0.000000      0.000000
     2   0 2 0     -6.963604     -3.481802     -3.481802      0.000000
     2   0 1 1     -0.000000     -0.000000     -0.000000      0.000000
     2   0 0 2     -6.567362    -10.435605    -10.435605     14.303847


 Parallel integral file used       4 records with       0 large values



                            NWChem DFT Gradient Module
                            --------------------------


                  HCN --> HNC Zero-Temperature String Simulation



  charge          =   0.00
  wavefunction    = closed shell



                         DFT ENERGY GRADIENTS

    atom               coordinates                        gradient
                 x          y          z           x          y          z
   1 C       0.000000   0.000000  -0.828700    0.000000  -0.000000   6.482474
   2 N       0.000000   0.000000   0.460349   -0.000000   0.000000  -6.431513
   3 H       0.000000   0.000000  -2.949565   -0.000000   0.000000  -0.050961

                 ----------------------------------------
                 |  Time  |  1-e(secs)   |  2-e(secs)   |
                 ----------------------------------------
                 |  CPU   |       0.00   |       0.06   |
                 ----------------------------------------
                 |  WALL  |       0.00   |       0.06   |
                 ----------------------------------------
string: finished bead   4 energy=        -91.187259
 string: running bead                     5

                                 NWChem DFT Module
                                 -----------------


                  HCN --> HNC Zero-Temperature String Simulation


  Caching 1-el integrals 

            General Information
            -------------------
          SCF calculation type: DFT
          Wavefunction type:  closed shell.
          No. of atoms     :     3
          No. of electrons :    14
           Alpha electrons :     7
            Beta electrons :     7
          Charge           :     0
          Spin multiplicity:     1
          Use of symmetry is: off; symmetry adaption is: off
          Maximum number of iterations: 501
          AO basis - number of functions:    20
                     number of shells:    12
          Convergence on energy requested: 1.00D-06
          Convergence on density requested: 1.00D-05
          Convergence on gradient requested: 5.00D-04

              XC Information
              --------------
                         B3LYP Method XC Potential
                     Hartree-Fock (Exact) Exchange  0.200          
                        Slater Exchange Functional  0.800 local    
                    Becke 1988 Exchange Functional  0.720 non-local
              Lee-Yang-Parr Correlation Functional  0.810          
                  VWN I RPA Correlation Functional  0.190 local    

             Grid Information
             ----------------
          Grid used for XC integration:  medium    
          Radial quadrature: Mura-Knowles        
          Angular quadrature: Lebedev. 
          Tag              B.-S. Rad. Rad. Pts. Rad. Cut. Ang. Pts.
          ---              ---------- --------- --------- ---------
          C                   0.70       49           5.0       434
          N                   0.65       49           6.0       434
          H                   0.35       45           6.0       434
          Grid pruning is: on 
          Number of quadrature shells:   143
          Spatial weights used:  Erf1

          Convergence Information
          -----------------------
          Convergence aids based upon iterative change in 
          total energy or number of iterations. 
          Levelshifting, if invoked, occurs when the 
          HOMO/LUMO gap drops below (HL_TOL): 1.00D-02
          DIIS, if invoked, will attempt to extrapolate 
          using up to (NFOCK): 10 stored Fock matrices.

                    Damping( 0%)  Levelshifting(0.5)       DIIS
                  --------------- ------------------- ---------------
          dE  on:    start            ASAP                start   
          dE off:    2 iters        501 iters           501 iters 


      Screening Tolerance Information
      -------------------------------
          Density screening/tol_rho: 1.00D-10
          AO Gaussian exp screening on grid/accAOfunc:  14
          CD Gaussian exp screening on grid/accCDfunc:  20
          XC Gaussian exp screening on grid/accXCfunc:  20
          Schwarz screening/accCoul: 1.00D-08


 Loading old vectors from job with title :

HCN --> HNC Zero-Temperature String Simulation

   Time after variat. SCF:      3.2
   Time prior to 1st pass:      3.2

 #quartets = 3.081D+03 #integrals = 7.553D+03 #direct =  0.0% #cached =100.0%


 Integral file          = ./perm/hcn-hnc-dft.aoints.0
 Record size in doubles =  65536        No. of integs per rec  =  43688
 Max. records in memory =      2        Max. records in file   = 303030
 No. of bits per label  =      8        No. of bits per value  =     64


File balance: exchanges=     0  moved=     0  time=   0.0


 Grid_pts file          = ./perm/hcn-hnc-dft.gridpts.0
 Record size in doubles =  12289        No. of grid_pts per rec  =   3070
 Max. records in memory =      7        Max. recs in file   =   1616034


           Memory utilization after 1st SCF pass: 
           Heap Space remaining (MW):       52.21            52210396
          Stack Space remaining (MW):       52.43            52426198

   convergence    iter        energy       DeltaE   RMS-Dens  Diis-err    time
 ---------------- ----- ----------------- --------- --------- ---------  ------
 d= 0,ls=0.0,diis     1    -88.0650870306 -1.35D+02  5.58D-02  1.36D+00     3.7
 d= 0,ls=0.0,diis     2    -88.1755146167 -1.10D-01  4.04D-02  1.25D-01     3.7
 d= 0,ls=0.0,diis     3    -88.1788789117 -3.36D-03  1.86D-02  1.19D-01     3.7
 d= 0,ls=0.0,diis     4    -88.1910466881 -1.22D-02  1.11D-03  2.30D-04     3.8
[...]
    20      0.177661  3 H  s                  9     -0.157298  1 C  pz         

 Vector    5  Occ=2.000000D+00  E=-3.880263D-01
              MO Center=  4.7D-02,  2.0D-01,  2.4D-01, r^2= 1.1D+00
   Bfn.  Coefficient  Atom+Function         Bfn.  Coefficient  Atom+Function  
  ----- ------------  ---------------      ----- ------------  ---------------
    15      0.458459  2 N  s                 13      0.349642  2 N  py         
    17      0.307251  2 N  py                 6     -0.266146  1 C  s          
     5     -0.206841  1 C  pz                 8      0.180603  1 C  py         

 Vector    6  Occ=2.000000D+00  E=-3.675962D-01
              MO Center=  9.1D-03, -1.2D-02,  2.4D-02, r^2= 1.1D+00
   Bfn.  Coefficient  Atom+Function         Bfn.  Coefficient  Atom+Function  
  ----- ------------  ---------------      ----- ------------  ---------------
    12      0.381450  2 N  px                 3      0.348596  1 C  px         
    16      0.345181  2 N  px                 7      0.310838  1 C  px         

 Vector    7  Occ=2.000000D+00  E=-3.464983D-01
              MO Center=  1.1D-03, -7.0D-02,  2.6D-01, r^2= 1.2D+00
   Bfn.  Coefficient  Atom+Function         Bfn.  Coefficient  Atom+Function  
  ----- ------------  ---------------      ----- ------------  ---------------
    14      0.414884  2 N  pz                18      0.357775  2 N  pz         
    15      0.334265  2 N  s                  4     -0.326566  1 C  py         
     8     -0.243760  1 C  py                 6      0.168082  1 C  s          

 Vector    8  Occ=0.000000D+00  E=-6.306947D-02
              MO Center= -1.8D-02, -1.6D-01, -3.9D-01, r^2= 1.8D+00
   Bfn.  Coefficient  Atom+Function         Bfn.  Coefficient  Atom+Function  
  ----- ------------  ---------------      ----- ------------  ---------------
     6      0.693820  1 C  s                 20     -0.606802  3 H  s          
    17      0.425938  2 N  py                13      0.338802  2 N  py         
     8     -0.306798  1 C  py                 4     -0.265425  1 C  py         
    18     -0.222095  2 N  pz                19     -0.204376  3 H  s          
    14     -0.157902  2 N  pz         

 Vector    9  Occ=0.000000D+00  E= 2.899073D-02
              MO Center= -7.8D-03, -1.1D-01, -1.1D-01, r^2= 1.4D+00
   Bfn.  Coefficient  Atom+Function         Bfn.  Coefficient  Atom+Function  
  ----- ------------  ---------------      ----- ------------  ---------------
     7      0.667577  1 C  px                16     -0.618360  2 N  px         
    12     -0.391553  2 N  px                 3      0.388875  1 C  px         

 Vector   10  Occ=0.000000D+00  E= 1.611658D-01
              MO Center= -6.6D-04, -1.6D-02, -1.3D+00, r^2= 2.1D+00
   Bfn.  Coefficient  Atom+Function         Bfn.  Coefficient  Atom+Function  
  ----- ------------  ---------------      ----- ------------  ---------------
    20      1.722065  3 H  s                  6     -1.229995  1 C  s          
     9      0.830131  1 C  pz                 8     -0.629408  1 C  py         
    18     -0.368721  2 N  pz                 5      0.337618  1 C  pz         
    17      0.289251  2 N  py                 4     -0.218537  1 C  py         
    14     -0.153665  2 N  pz         

 Vector   11  Occ=0.000000D+00  E= 3.431786D-01
              MO Center= -5.7D-02, -3.8D-01, -4.8D-01, r^2= 2.3D+00
   Bfn.  Coefficient  Atom+Function         Bfn.  Coefficient  Atom+Function  
  ----- ------------  ---------------      ----- ------------  ---------------
    15      2.486146  2 N  s                  6     -2.001993  1 C  s          
     9     -1.875154  1 C  pz                 8     -1.168592  1 C  py         
    18     -0.865899  2 N  pz                17     -0.688416  2 N  py         
    20     -0.372959  3 H  s                  7     -0.211055  1 C  px         

 Vector   12  Occ=0.000000D+00  E= 6.972678D-01
              MO Center= -6.3D-02, -4.1D-01, -5.4D-01, r^2= 1.4D+00
   Bfn.  Coefficient  Atom+Function         Bfn.  Coefficient  Atom+Function  
  ----- ------------  ---------------      ----- ------------  ---------------
     7     -1.052639  1 C  px                 3      1.035904  1 C  px         
     8      0.177964  1 C  py                 4     -0.175135  1 C  py         

 Vector   13  Occ=0.000000D+00  E= 7.344175D-01
              MO Center= -1.1D-01, -7.0D-01, -2.7D-01, r^2= 1.4D+00
   Bfn.  Coefficient  Atom+Function         Bfn.  Coefficient  Atom+Function  
  ----- ------------  ---------------      ----- ------------  ---------------
     4      0.975693  1 C  py                 8     -0.938559  1 C  py         
     9      0.896759  1 C  pz                20      0.536400  3 H  s          
    15     -0.333242  2 N  s                  5     -0.292409  1 C  pz         
    17      0.281843  2 N  py                 6      0.174660  1 C  s          
     2     -0.170788  1 C  s                  3      0.162852  1 C  px         

 Vector   14  Occ=0.000000D+00  E= 8.374559D-01
              MO Center= -1.9D-02, -1.4D-01, -9.4D-01, r^2= 1.7D+00
   Bfn.  Coefficient  Atom+Function         Bfn.  Coefficient  Atom+Function  
  ----- ------------  ---------------      ----- ------------  ---------------
    19      1.014754  3 H  s                  6     -0.722809  1 C  s          
     9      0.670509  1 C  pz                 5     -0.477247  1 C  pz         
    18     -0.364423  2 N  pz                 4     -0.321260  1 C  py         
    20     -0.318567  3 H  s                 17     -0.306586  2 N  py         
    14     -0.251159  2 N  pz                15      0.220033  2 N  s          

 Vector   15  Occ=0.000000D+00  E= 8.888061D-01
              MO Center=  9.2D-03,  9.6D-03, -4.8D-01, r^2= 1.9D+00
   Bfn.  Coefficient  Atom+Function         Bfn.  Coefficient  Atom+Function  
  ----- ------------  ---------------      ----- ------------  ---------------
     6      1.169901  1 C  s                 20     -1.121293  3 H  s          
     5      0.957893  1 C  pz                18      0.877961  2 N  pz         
    19      0.684501  3 H  s                 15     -0.643621  2 N  s          
     9     -0.568187  1 C  pz                17      0.493379  2 N  py         
     4      0.250496  1 C  py                 2      0.236643  1 C  s          

 Vector   16  Occ=0.000000D+00  E= 1.128993D+00
              MO Center=  6.5D-02,  3.0D-01,  4.6D-01, r^2= 1.2D+00
   Bfn.  Coefficient  Atom+Function         Bfn.  Coefficient  Atom+Function  
  ----- ------------  ---------------      ----- ------------  ---------------
    16      1.177724  2 N  px                12     -1.027183  2 N  px         
     7     -0.461523  1 C  px                17     -0.199114  2 N  py         
    13      0.173662  2 N  py         

 Vector   17  Occ=0.000000D+00  E= 1.142863D+00
              MO Center=  9.3D-02,  4.6D-01,  5.2D-01, r^2= 9.0D-01
   Bfn.  Coefficient  Atom+Function         Bfn.  Coefficient  Atom+Function  
  ----- ------------  ---------------      ----- ------------  ---------------
    17     -0.918085  2 N  py                13      0.841305  2 N  py         
    14      0.660301  2 N  pz                18     -0.663328  2 N  pz         
     6     -0.655634  1 C  s                  9     -0.479422  1 C  pz         
    15      0.349779  2 N  s                  5      0.305556  1 C  pz         
     4      0.160391  1 C  py                16     -0.159988  2 N  px         


 center of mass
 --------------
 x =   0.01452471 y =  -0.03411565 z =  -0.08297169

 moments of inertia (a.u.)
 ------------------
          39.397573357026          -1.870656253693          -2.655141563801
          -1.870656253693          29.283979804453         -14.473296661654
          -2.655141563801         -14.473296661654          10.784314351615

     Multipole analysis of the density
     ---------------------------------

     L   x y z        total         alpha         beta         nuclear
     -   - - -        -----         -----         ----         -------
     0   0 0 0     -0.000000     -7.000000     -7.000000     14.000000

     1   1 0 0     -0.015613     -0.105738     -0.105738      0.195863
     1   0 1 0     -0.053328      0.203988      0.203988     -0.461304
     1   0 0 1     -0.917421      0.834106      0.834106     -2.585634

     2   2 0 0     -8.575398     -4.372953     -4.372953      0.170507
     2   1 1 0     -0.059280     -0.493907     -0.493907      0.928534
     2   1 0 1     -0.132386     -0.721932     -0.721932      1.311479
     2   0 2 0     -8.876981     -7.058355     -7.058355      5.239729
     2   0 1 1     -0.732252     -4.002779     -4.002779      7.273306
     2   0 0 2     -7.093061    -12.989126    -12.989126     18.885192


 Parallel integral file used       4 records with       0 large values



                            NWChem DFT Gradient Module
                            --------------------------


                  HCN --> HNC Zero-Temperature String Simulation



  charge          =   0.00
  wavefunction    = closed shell



                         DFT ENERGY GRADIENTS

    atom               coordinates                        gradient
                 x          y          z           x          y          z
   1 C      -0.107539  -0.720190  -0.927218   -0.007092  -0.044802   0.067037
   2 N       0.120190   0.551322   0.846898    0.000427   0.004482  -0.045964
   3 H      -0.000232   0.000584  -2.950617    0.006665   0.040320  -0.021073

                 ----------------------------------------
                 |  Time  |  1-e(secs)   |  2-e(secs)   |
                 ----------------------------------------
                 |  CPU   |       0.00   |       0.05   |
                 ----------------------------------------
                 |  WALL  |       0.00   |       0.05   |
                 ----------------------------------------
string: finished bead   5 energy=        -92.869007
 string: running bead                     6

                                 NWChem DFT Module
                                 -----------------


                  HCN --> HNC Zero-Temperature String Simulation


  Caching 1-el integrals 

            General Information
            -------------------
          SCF calculation type: DFT
          Wavefunction type:  closed shell.
          No. of atoms     :     3
          No. of electrons :    14
           Alpha electrons :     7
            Beta electrons :     7
          Charge           :     0
          Spin multiplicity:     1
          Use of symmetry is: off; symmetry adaption is: off
          Maximum number of iterations: 501
          AO basis - number of functions:    20
                     number of shells:    12
          Convergence on energy requested: 1.00D-06
          Convergence on density requested: 1.00D-05
          Convergence on gradient requested: 5.00D-04

              XC Information
              --------------
                         B3LYP Method XC Potential
                     Hartree-Fock (Exact) Exchange  0.200          
                        Slater Exchange Functional  0.800 local    
                    Becke 1988 Exchange Functional  0.720 non-local
              Lee-Yang-Parr Correlation Functional  0.810          
                  VWN I RPA Correlation Functional  0.190 local    

             Grid Information
             ----------------
          Grid used for XC integration:  medium    
          Radial quadrature: Mura-Knowles        
          Angular quadrature: Lebedev. 
          Tag              B.-S. Rad. Rad. Pts. Rad. Cut. Ang. Pts.
          ---              ---------- --------- --------- ---------
          C                   0.70       49           6.0       434
          N                   0.65       49           6.0       434
          H                   0.35       45           6.0       434
          Grid pruning is: on 
          Number of quadrature shells:   143
          Spatial weights used:  Erf1

          Convergence Information
          -----------------------
          Convergence aids based upon iterative change in 
          total energy or number of iterations. 
          Levelshifting, if invoked, occurs when the 
          HOMO/LUMO gap drops below (HL_TOL): 1.00D-02
          DIIS, if invoked, will attempt to extrapolate 
          using up to (NFOCK): 10 stored Fock matrices.

                    Damping( 0%)  Levelshifting(0.5)       DIIS
                  --------------- ------------------- ---------------
          dE  on:    start            ASAP                start   
          dE off:    2 iters        501 iters           501 iters 


      Screening Tolerance Information
      -------------------------------
          Density screening/tol_rho: 1.00D-10
          AO Gaussian exp screening on grid/accAOfunc:  14
          CD Gaussian exp screening on grid/accCDfunc:  20
          XC Gaussian exp screening on grid/accXCfunc:  20
          Schwarz screening/accCoul: 1.00D-08


 Loading old vectors from job with title :

HCN --> HNC Zero-Temperature String Simulation

   Time after variat. SCF:    131.6
   Time prior to 1st pass:    131.6

 #quartets = 3.071D+03 #integrals = 2.277D+04 #direct =  0.0% #cached =100.0%


 Integral file          = ./perm/hcn-hnc-dft.aoints.0
 Record size in doubles =  65536        No. of integs per rec  =  43688
 Max. records in memory =      2        Max. records in file   = 302927
 No. of bits per label  =      8        No. of bits per value  =     64


File balance: exchanges=     0  moved=     0  time=   0.0


 Grid_pts file          = ./perm/hcn-hnc-dft.gridpts.0
 Record size in doubles =  12289        No. of grid_pts per rec  =   3070
 Max. records in memory =      7        Max. recs in file   =   1615466


           Memory utilization after 1st SCF pass: 
           Heap Space remaining (MW):       52.21            52210396
          Stack Space remaining (MW):       52.42            52423918

   convergence    iter        energy       DeltaE   RMS-Dens  Diis-err    time
 ---------------- ----- ----------------- --------- --------- ---------  ------
 d= 0,ls=0.0,diis     1    -92.8429840182 -1.17D+02  7.59D-03  2.12D-02   131.9
 d= 0,ls=0.0,diis     2    -92.8471765059 -4.19D-03  1.10D-03  3.67D-04   132.0
 d= 0,ls=0.0,diis     3    -92.8471763879  1.18D-07  7.94D-04  6.34D-04   132.0
 d= 0,ls=0.0,diis     4    -92.8472298196 -5.34D-05  3.12D-04  1.70D-04   132.0
 d= 0,ls=0.0,diis     5    -92.8472485035 -1.87D-05  5.74D-05  1.76D-06   132.0
  Resetting Diis
 d= 0,ls=0.0,diis     6    -92.8472487607 -2.57D-07  9.25D-06  3.55D-08   132.1
 d= 0,ls=0.0,diis     7    -92.8472487679 -7.21D-09  1.27D-06  1.95D-10   132.1


         Total DFT energy =      -92.847248767920
      One electron energy =     -172.002271668276
           Coulomb energy =       67.794262226437
    Exchange-Corr. energy =      -12.528969699661
 Nuclear repulsion energy =       23.889730373581

 Numeric. integr. density =       14.000000242206

     Total iterative time =      0.6s



                       DFT Final Molecular Orbital Analysis
                       ------------------------------------

 Vector    1  Occ=2.000000D+00  E=-1.428611D+01
              MO Center=  7.7D-02,  3.5D-01,  3.6D-01, r^2= 2.0D-02
   Bfn.  Coefficient  Atom+Function         Bfn.  Coefficient  Atom+Function  
  ----- ------------  ---------------      ----- ------------  ---------------
    10      0.984774  2 N  s          

 Vector    2  Occ=2.000000D+00  E=-1.018013D+01
              MO Center= -6.7D-02, -4.5D-01, -4.5D-01, r^2= 2.8D-02
   Bfn.  Coefficient  Atom+Function         Bfn.  Coefficient  Atom+Function  
  ----- ------------  ---------------      ----- ------------  ---------------
     1      0.984681  1 C  s          

 Vector    3  Occ=2.000000D+00  E=-9.680750D-01
              MO Center=  2.1D-02,  3.8D-02, -4.1D-03, r^2= 5.3D-01
   Bfn.  Coefficient  Atom+Function         Bfn.  Coefficient  Atom+Function  
  ----- ------------  ---------------      ----- ------------  ---------------
    15      0.522159  2 N  s                 11      0.194209  2 N  s          
    10     -0.191936  2 N  s                  2      0.176936  1 C  s          
     4      0.160708  1 C  py                 1     -0.155103  1 C  s          
     6      0.150539  1 C  s          

 Vector    4  Occ=2.000000D+00  E=-5.431717D-01
              MO Center= -2.6D-02, -1.9D-01, -8.9D-01, r^2= 1.1D+00
   Bfn.  Coefficient  Atom+Function         Bfn.  Coefficient  Atom+Function  
  ----- ------------  ---------------      ----- ------------  ---------------
     6      0.433856  1 C  s                 15     -0.382871  2 N  s          
     5     -0.295439  1 C  pz                19      0.261503  3 H  s          
    20      0.193896  3 H  s                  9     -0.161830  1 C  pz         

 Vector    5  Occ=2.000000D+00  E=-3.943472D-01
              MO Center=  5.2D-02,  2.1D-01,  1.6D-01, r^2= 1.2D+00
   Bfn.  Coefficient  Atom+Function         Bfn.  Coefficient  Atom+Function  
  ----- ------------  ---------------      ----- ------------  ---------------
    15      0.463280  2 N  s                 13      0.355518  2 N  py         
    17      0.311290  2 N  py                 6     -0.307643  1 C  s          
     5     -0.202971  1 C  pz                 8      0.162696  1 C  py         

 Vector    6  Occ=2.000000D+00  E=-3.730166D-01
              MO Center=  1.3D-02, -4.8D-03,  3.6D-03, r^2= 1.1D+00
   Bfn.  Coefficient  Atom+Function         Bfn.  Coefficient  Atom+Function  
  ----- ------------  ---------------      ----- ------------  ---------------
    12      0.385584  2 N  px                16      0.350050  2 N  px         
     3      0.345894  1 C  px                 7      0.300857  1 C  px         

 Vector    7  Occ=2.000000D+00  E=-3.427072D-01
              MO Center=  2.6D-03, -7.9D-02,  1.8D-01, r^2= 1.3D+00
   Bfn.  Coefficient  Atom+Function         Bfn.  Coefficient  Atom+Function  
  ----- ------------  ---------------      ----- ------------  ---------------
    14      0.406855  2 N  pz                18      0.362181  2 N  pz         
     4     -0.341356  1 C  py                15      0.305238  2 N  s          
     6      0.259586  1 C  s                  8     -0.225430  1 C  py         

 Vector    8  Occ=0.000000D+00  E=-7.845233D-02
              MO Center= -1.0D-02, -1.2D-01, -4.8D-01, r^2= 1.9D+00
   Bfn.  Coefficient  Atom+Function         Bfn.  Coefficient  Atom+Function  
  ----- ------------  ---------------      ----- ------------  ---------------
     6      0.670420  1 C  s                 20     -0.624904  3 H  s          
    17      0.371166  2 N  py                13      0.300492  2 N  py         
    18     -0.288379  2 N  pz                 8     -0.248205  1 C  py         
     4     -0.232735  1 C  py                19     -0.223552  3 H  s          
    14     -0.221942  2 N  pz         

 Vector    9  Occ=0.000000D+00  E= 3.494176D-02
              MO Center= -1.0D-02, -1.4D-01, -1.3D-01, r^2= 1.4D+00
   Bfn.  Coefficient  Atom+Function         Bfn.  Coefficient  Atom+Function  
  ----- ------------  ---------------      ----- ------------  ---------------
     7      0.677842  1 C  px                16     -0.619925  2 N  px         
     3      0.391755  1 C  px                12     -0.388939  2 N  px         

 Vector   10  Occ=0.000000D+00  E= 1.437710D-01
              MO Center= -7.6D-03, -7.1D-02, -1.1D+00, r^2= 2.1D+00
   Bfn.  Coefficient  Atom+Function         Bfn.  Coefficient  Atom+Function  
  ----- ------------  ---------------      ----- ------------  ---------------
    20      1.524893  3 H  s                  6     -0.935060  1 C  s          
     9      0.917609  1 C  pz                 8     -0.547246  1 C  py         
    18     -0.379147  2 N  pz                 5      0.372115  