 argument  1 = /scratch/scratchdirs/ebylaska/SNWC/brucite-nosym_25/band-xxx-unknown-10160-2012-2-1-11:4.nw
ARMCI configured for 2 cluster nodes. Network protocol is 'Cray Onesided'.
libonesided using gni version: 4980891
libonesided: blocking waits
[ds 0]: set_affinity mask=0x3f
 


============================== echo of input deck ==============================
permanent_dir /scratch/scratchdirs/ebylaska/SNWC/brucite-nosym_25
scratch_dir  /scratch/scratchdirs/ebylaska/SNWC/brucite-nosym_25

title "brucite testing - not using symmetry"
echo

memory 1500 mb

#permanent_dir ./perm332
#scratch_dir   ./perm332

geometry nocenter noautosym noautoz print
  system crystal
    lat_a 3.14979
    lat_b 3.14979
    lat_c 4.7702
    alpha 90.0
    beta  90.0
    gamma 120.0
  end

Mg           0.000000      0.000000      0.000000
O            0.333333     -0.333333      0.220300
O           -0.333333      0.333333     -0.220300
H            0.333333     -0.333333      0.413000
H           -0.333333      0.333333     -0.413000
end
set nwpw:cif_filename brucite-nosym

#turn on pseudopotential filtering
set nwpw:kbpp_ray .true.
set nwpw:kbpp_filter .true.


#***** setup the nwpw gamma point code ****
nwpw
   ewald_rcut 3.0
   ewald_ncut 8
   xc pbe96
   lmbfgs
   monkhorst-pack 3 3 2
   np_dimensions -1 -1 4
end

driver
   clear
   maxiter 151
end

set includestress  .true.          # tell driver to optimize unit cell
set includelattice .true.

task band optimize ignore
================================================================================


                                         
                                         
 
 
              Northwest Computational Chemistry Package (NWChem) 6.1
              ------------------------------------------------------
 
 
                    Environmental Molecular Sciences Laboratory
                       Pacific Northwest National Laboratory
                                Richland, WA 99352
 
                              Copyright (c) 1994-2010
                       Pacific Northwest National Laboratory
                            Battelle Memorial Institute
 
             NWChem is an open-source computational chemistry package
                        distributed under the terms of the
                      Educational Community License (ECL) 2.0
             A copy of the license is included with this distribution
                              in the LICENSE.TXT file
 
                                  ACKNOWLEDGMENT
                                  --------------

            This software and its documentation were developed at the
            EMSL at Pacific Northwest National Laboratory, a multiprogram
            national laboratory, operated for the U.S. Department of Energy
            by Battelle under Contract Number DE-AC05-76RL01830. Support
            for this work was provided by the Department of Energy Office
            of Biological and Environmental Research, Office of Basic
            Energy Sciences, and the Office of Advanced Scientific Computing.


           Job information
           ---------------

    hostname      = nid06345
    program       = /global/scratch/sd/ebylaska/nwchem-6.1/bin/LINUX64/nwchem
    date          = Wed Feb  1 19:05:36 2012

    compiled      = Wed_Feb_01_10:17:49_2012
    source        = /global/scratch/sd/ebylaska/nwchem-6.1
    nwchem branch = 6.1
    input         = /scratch/scratchdirs/ebylaska/SNWC/brucite-nosym_25/band-xxx-unknown-10160-2012-2-1-11:4.nw
    prefix        = band-xxx-unknown-10160-2012-2-1-11:4.
    data base     = /scratch/scratchdirs/ebylaska/SNWC/brucite-nosym_25/band-xxx-unknown-10160-2012-2-1-11:4.db
    status        = startup
    nproc         =       48
    time left     =     -1s



           Memory information
           ------------------

    heap     =   49152001 doubles =    375.0 Mbytes
    stack    =   49152001 doubles =    375.0 Mbytes
    global   =   98304000 doubles =    750.0 Mbytes (distinct from heap & stack)
    total    =  196608002 doubles =   1500.0 Mbytes
    verify   = yes
    hardfail = no 


           Directory information
           ---------------------
 
  0 permanent = /scratch/scratchdirs/ebylaska/SNWC/brucite-nosym_25
  0 scratch   = /scratch/scratchdirs/ebylaska/SNWC/brucite-nosym_25
 
 
 
 
                                NWChem Input Module
                                -------------------
 
 
                       brucite testing - not using symmetry
                       ------------------------------------
 
  !!!!!!!!!  geom_3d NEEDS TESTING !!!!!!!!!! 
 
 
                             Geometry "geometry" -> ""
                             -------------------------
 
 Output coordinates in angstroms (scale by  1.889725989 to convert to a.u.)
 
  No.       Tag          Charge          X              Y              Z
 ---- ---------------- ---------- -------------- -------------- --------------
    1 Mg                  12.0000     0.00000000     0.00000000     0.00000000
    2 O                    8.0000     0.90926514     1.57489657     1.05087506
    3 O                    8.0000     1.81853301    -0.00000157     3.71932494
    4 H                    1.0000     0.90926514     1.57489657     1.97009260
    5 H                    1.0000     1.81853301    -0.00000157     2.80010740
 
      Lattice Parameters 
      ------------------ 
 
      lattice vectors in angstroms (scale by  1.889725989 to convert to a.u.)
 
      a1=<   2.728  -1.575   0.000 >
      a2=<   0.000   3.150   0.000 >
      a3=<   0.000   0.000   4.770 >
      a=       3.150 b=      3.150 c=       4.770
      alpha=  90.000 beta=  90.000 gamma= 120.000
      omega=    41.0
 
      reciprocal lattice vectors in a.u.
 
      b1=<   1.219   0.000   0.000 >
      b2=<   0.609   1.056   0.000 >
      b3=<   0.000   0.000   0.697 >
 
      Atomic Mass 
      ----------- 
 
      Mg                23.985040
      O                 15.994910
      H                  1.007825
 
 
 ==============================================================================
                                internuclear distances
 ------------------------------------------------------------------------------
       center one      |      center two      | atomic units |  angstroms
 ------------------------------------------------------------------------------
    2 O                |   1 Mg               |     3.96905  |     2.10033
    4 H                |   2 O                |     1.73707  |     0.91922
    5 H                |   3 O                |     1.73707  |     0.91922
 ------------------------------------------------------------------------------
                         number of included internuclear distances:          3
 ==============================================================================



 ==============================================================================
                                 internuclear angles
 ------------------------------------------------------------------------------
        center 1       |       center 2       |       center 3       |  degrees
 ------------------------------------------------------------------------------
    1 Mg               |   2 O                |   4 H                |   120.02
 ------------------------------------------------------------------------------
                            number of included internuclear angles:          1
 ==============================================================================



 
  Deleted DRIVER restart files 
 
 
 
                           NWChem Geometry Optimization
                           ----------------------------
 
 
 
 
                       brucite testing - not using symmetry
 
 
 maximum gradient threshold         (gmax) =   0.000450
 rms gradient threshold             (grms) =   0.000300
 maximum cartesian step threshold   (xmax) =   0.001800
 rms cartesian step threshold       (xrms) =   0.001200
 fixed trust radius                (trust) =   0.300000
 maximum step size to saddle      (sadstp) =   0.100000
 energy precision                  (eprec) =   1.0D-07
 maximum number of steps          (nptopt) =  151
 initial hessian option           (inhess) =    0
 line search option               (linopt) =    1
 hessian update option            (modupd) =    1
 saddle point option              (modsad) =    0
 initial eigen-mode to follow     (moddir) =    0
 initial variable to follow       (vardir) =    0
 follow first negative mode     (firstneg) =    T
 apply conjugacy                    (opcg) =    F
 source of zmatrix                         =           


          -------------------
          Energy Minimization
          -------------------

  INCLUDING LATTICE GRADIENTS !!!!!
 
 Using diagonal initial Hessian 
  The initial hessian 

              1        2        3        4        5        6        7        8
    1   28.5530 -14.4492  -0.2009 -10.3220   5.1610   0.0000 -10.0938   5.1610
    2  -14.4492  28.5530   0.2009   5.1610 -10.0938  -0.1153   5.1610 -10.3220
    3   -0.2009   0.2009  58.1478   0.0000  -0.1153 -16.0745   0.1153   0.0000
    4  -10.3220   5.1610   0.0000  14.3939  -7.1970   0.0000  -0.5028   0.2514
    5    5.1610 -10.0938  -0.1153  -7.1970  14.1717   0.1441   0.2514  -0.5028
    6    0.0000  -0.1153 -16.0745   0.0000   0.1441  58.3474   0.0000   0.0000
    7  -10.0938   5.1610   0.1153  -0.5028   0.2514   0.0000  14.1717  -7.1970
    8    5.1610 -10.3220   0.0000   0.2514  -0.5028   0.0000  -7.1970  14.3939
    9    0.1153   0.0000 -16.0745   0.0000   0.0000  -3.5259  -0.1441   0.0000
   10   -1.2374   0.6187   0.0000  -0.3096   0.1548   0.0000  -0.3808   0.1904
   11    0.6187  -1.1893  -0.0455   0.1548  -0.3096   0.0000   0.1904  -0.3808
   12    0.0000  -0.0455  -7.1846   0.0000   0.0000 -25.4615   0.0000   0.0000
   13   -1.1893   0.6187   0.0455  -0.3808   0.1904   0.0000  -0.3096   0.1548
   14    0.6187  -1.2374   0.0000   0.1904  -0.3808   0.0000   0.1548  -0.3096
   15    0.0455   0.0000  -7.1846   0.0000   0.0000  -1.6161   0.0000   0.0000

              9       10       11       12       13       14       15       16
    1    0.1153  -1.2374   0.6187   0.0000  -1.1893   0.6187   0.0455   0.0000
    2    0.0000   0.6187  -1.1893  -0.0455   0.6187  -1.2374   0.0000   0.0000
    3  -16.0745   0.0000  -0.0455  -7.1846   0.0455   0.0000  -7.1846   0.0000
    4    0.0000  -0.3096   0.1548   0.0000  -0.3808   0.1904   0.0000   0.0000
    5    0.0000   0.1548  -0.3096   0.0000   0.1904  -0.3808   0.0000   0.0000
    6   -3.5259   0.0000   0.0000 -25.4615   0.0000   0.0000  -1.6161   0.0000
    7   -0.1441  -0.3808   0.1904   0.0000  -0.3096   0.1548   0.0000   0.0000
    8    0.0000   0.1904  -0.3808   0.0000   0.1548  -0.3096   0.0000   0.0000
    9   58.3474   0.0000   0.0000  -1.6161   0.0000   0.0000 -25.4615   0.0000
   10    0.0000  14.1717  -1.7267   0.0000  -0.8349   0.4175   0.0000   0.0000
   11    0.0000  -1.7267  14.1717   0.0569   0.4175  -0.8349   0.0000   0.0000
   12   -1.6161   0.0000   0.0569  43.8250   0.0000   0.0000  -0.7979   0.0000
   13    0.0000  -0.8349   0.4175   0.0000  14.1717  -1.7267  -0.0569   0.0000
   14    0.0000   0.4175  -0.8349   0.0000  -1.7267  14.1717   0.0000   0.0000
   15  -25.4615   0.0000   0.0000  -0.7979  -0.0569   0.0000  43.8250   0.0000
   16    0.0000   0.0000   0.0000   0.0000   0.0000   0.0000   0.0000   1.7807
   17    0.0000   0.0000   0.0000   0.0000   0.0000   0.0000   0.0000  -0.0016
   18    0.0000   0.0000   0.0000   0.0000   0.0000   0.0000   0.0000  -0.0010

             17       18       19       20       21      
   16   -0.0016  -0.0010   0.0000   0.0000   0.0000
   17    1.7807  -0.0010   0.0000   0.0000   0.0000
   18   -0.0010   1.3404   0.0000   0.0000   0.0000
   19    0.0000   0.0000 300.0000   0.0000   0.0000
   20    0.0000   0.0000   0.0000 300.0000   0.0000
   21    0.0000   0.0000   0.0000   0.0000 300.0000

          --------
          Step   0
          --------
 
 
                         Geometry "geometry" -> "geometry"
                         ---------------------------------
 
 Output coordinates in angstroms (scale by  1.889725989 to convert to a.u.)
 
  No.       Tag          Charge          X              Y              Z
 ---- ---------------- ---------- -------------- -------------- --------------
    1 Mg                  12.0000     0.00000000     0.00000000     0.00000000
    2 O                    8.0000     0.90926514     1.57489657     1.05087506
    3 O                    8.0000     1.81853301    -0.00000157     3.71932494
    4 H                    1.0000     0.90926514     1.57489657     1.97009260
    5 H                    1.0000     1.81853301    -0.00000157     2.80010740
 
      Lattice Parameters 
      ------------------ 
 
      lattice vectors in angstroms (scale by  1.889725989 to convert to a.u.)
 
      a1=<   2.728  -1.575   0.000 >
      a2=<   0.000   3.150   0.000 >
      a3=<   0.000   0.000   4.770 >
      a=       3.150 b=      3.150 c=       4.770
      alpha=  90.000 beta=  90.000 gamma= 120.000
      omega=    41.0
 
      reciprocal lattice vectors in a.u.
 
      b1=<   1.219   0.000   0.000 >
      b2=<   0.609   1.056   0.000 >
      b3=<   0.000   0.000   0.697 >
 
      Atomic Mass 
      ----------- 
 
      Mg                23.985040
      O                 15.994910
      H                  1.007825
 
 
  library name resolved from: compiled reference
  NWCHEM_NWPW_LIBRARY set to: <
 /global/scratch/sd/ebylaska/nwchem-6.1/src/nwpw/libraryps/>
  library name resolved from: compiled reference
  NWCHEM_NWPW_LIBRARY set to: <
 /global/scratch/sd/ebylaska/nwchem-6.1/src/nwpw/libraryps/>
  library name resolved from: compiled reference
  NWCHEM_NWPW_LIBRARY set to: <
 /global/scratch/sd/ebylaska/nwchem-6.1/src/nwpw/libraryps/>
          **********************************************************
          *                                                        *
          *                   NWPW BAND Calculation                *
          *                                                        *
          *  [(bundled Grassman/Stiefel manifold implementation)]  *
          *                                                        *
          *         [ NorthWest Chemistry implementation ]         *
          *                                                        *
          *                version #1.10   01/31/03                *
          *                                                        *
          *  A pseudopotential plane-wave band structure program   *
          *  with Brillouin zone sampling for optimizing crystals, *
          *  slabs, and polymers.  Developed by Eric J. Bylaska    *
          *  , Edoardo Apra, and Patrick Nichols.                  *
          *                                                        *
          **********************************************************
     >>>  JOB STARTED       AT Wed Feb  1 19:05:37 2012  <<<
          ================ input data ========================
  library name resolved from: compiled reference
  NWCHEM_NWPW_LIBRARY set to: <
 /global/scratch/sd/ebylaska/nwchem-6.1/src/nwpw/libraryps/>
 Generating 1d pseudopotential for Mg  
 
 Generated formatted_filename: 
 /scratch/scratchdirs/ebylaska/SNWC/brucite-nosym_25/Mg.cpp
 - Spline fitted, nray= 4485 -
 - filtered -
  library name resolved from: compiled reference
  NWCHEM_NWPW_LIBRARY set to: <
 /global/scratch/sd/ebylaska/nwchem-6.1/src/nwpw/libraryps/>
 Generating 1d pseudopotential for O   
 
 Generated formatted_filename: 
 /scratch/scratchdirs/ebylaska/SNWC/brucite-nosym_25/O.cpp
 - Spline fitted, nray= 4485 -
 - filtered -
  library name resolved from: compiled reference
  NWCHEM_NWPW_LIBRARY set to: <
 /global/scratch/sd/ebylaska/nwchem-6.1/src/nwpw/libraryps/>
 Generating 1d pseudopotential for H   
 
 Generated formatted_filename: 
 /scratch/scratchdirs/ebylaska/SNWC/brucite-nosym_25/H.cpp
 - Spline fitted, nray= 4485 -
 - filtered -
 random planewave guess, initial psi:
 band-xxx-unknown-10160-2012-2-1-11:4.movecs       
 -   spin, nalpha, nbeta:                        1                        8 
                        0

 input psi filename:/scratch/scratchdirs/ebylaska/SNWC/brucite-nosym_25/band-xxx-unknown-10160-2012-2-1-11:4.movecs
Warning - Orthogonalization performed, spin,zone: 1   1
        - error(before)=  0.100004E+01 (  0.699996E+01)
        - error(after)=   0.000000E+00 (  0.800000E+01)
Warning - Orthogonalization performed, spin,zone: 1   2
        - error(before)=  0.998641E+00 (  0.700136E+01)
        - error(after)=   0.000000E+00 (  0.800000E+01)
Warning - Orthogonalization performed, spin,zone: 1   3
        - error(before)=  0.997887E+00 (  0.700211E+01)
        - error(after)=   0.000000E+00 (  0.800000E+01)
Warning - Orthogonalization performed, spin,zone: 1   4
        - error(before)=  0.997803E+00 (  0.700220E+01)
        - error(after)=   0.888178E-15 (  0.800000E+01)
Warning - Orthogonalization performed, spin,zone: 1   5
        - error(before)=  0.994018E+00 (  0.700598E+01)
        - error(after)=   0.177636E-14 (  0.800000E+01)
Warning - Orthogonalization performed, spin,zone: 1   6
        - error(before)=  0.999968E+00 (  0.700003E+01)
        - error(after)=   0.000000E+00 (  0.800000E+01)
Warning - Orthogonalization performed, spin,zone: 1   7
        - error(before)=  0.994712E+00 (  0.700529E+01)
        - error(after)=   0.177636E-14 (  0.800000E+01)
Warning - Orthogonalization performed, spin,zone: 1   8
        - error(before)=  0.100110E+01 (  0.699890E+01)
        - error(after)=   0.000000E+00 (  0.800000E+01)
Warning - Orthogonalization performed, spin,zone: 1   9
        - error(before)=  0.996271E+00 (  0.700373E+01)
        - error(after)=   0.000000E+00 (  0.800000E+01)

 number of processors used:              48
 processor grid           :  12 x   1 x   4
 parallel mapping         :     2d  hilbert

 options:
      boundary conditions  = periodic    (version3)
      electron spin        = restricted
      exchange-correlation = PBE96 (White and Bird) parameterization

 elements involved in the cluster:
      1: Mg    core charge: 2.0  lmax=2
             comment    : Troullier-Martins pseudopotential
             pseudpotential type            :   0
             highest angular component      :   2
             local potential used           :   2
             number of non-local projections:   4
             semicore corrections included  :  1.730 (radius)  0.712 (charge)
             cutoff =   2.592   2.592   2.592
      2: O     core charge: 6.0  lmax=2
             comment    : Parameterized (Chem.Phys.Lett., vol 322, page 447) Hamman psp
             pseudpotential type            :   0
             highest angular component      :   2
             local potential used           :   2
             number of non-local projections:   4
             cutoff =   0.700   0.700   0.700
      3: H     core charge: 1.0  lmax=1
             comment    : Parameterized (Chem.Phys.Lett., vol 322, page 447) Hamman psp
             pseudpotential type            :   0
             highest angular component      :   1
             local potential used           :   1
             number of non-local projections:   1
             cutoff =   0.800   0.800

 total charge:   0.000

 atomic composition:
     Mg  :  1     O   :  2     H   :  2

 number of electrons: spin up=    8.00  spin down=    8.00 (fourier space)
 number of orbitals:  spin up=       8  spin down=       8 (fourier space)

 supercell:
      lattice:    a1=<   5.155  -2.976   0.000 >
                  a2=<   0.000   5.952   0.000 >
                  a3=<   0.000   0.000   9.014 >
      reciprocal: b1=<   1.219   0.000   0.000 >
                  b2=<   0.609   1.056   0.000 >
                  b3=<   0.000   0.000   0.697 >

      lattice:    a=   5.952    b=   5.952     c=   9.014
              alpha=  90.000 beta=  90.000 gamma= 120.000
      volume :      276.6
      ewald summation: cut radius=    3.00  and  8
                        madelung= 1.61745099

 brillouin zone:
      number of zone points:     9
      weight=   0.111  ks=<   0.333   0.333   0.250 >, k=<   0.609   0.352   0.174>
      weight=   0.111  ks=<   0.000   0.333   0.250 >, k=<   0.203   0.352   0.174>
      weight=   0.111  ks=<  -0.333   0.333   0.250 >, k=<  -0.203   0.352   0.174>
      weight=   0.111  ks=<   0.333   0.000   0.250 >, k=<   0.406   0.000   0.174>
      weight=   0.111  ks=<   0.000   0.000   0.250 >, k=<   0.000   0.000   0.174>
      weight=   0.111  ks=<   0.333   0.000  -0.250 >, k=<   0.406   0.000  -0.174>
      weight=   0.111  ks=<   0.333  -0.333   0.250 >, k=<   0.203  -0.352   0.174>
      weight=   0.111  ks=<   0.000   0.333  -0.250 >, k=<   0.203   0.352  -0.174>
      weight=   0.111  ks=<   0.333   0.333  -0.250 >, k=<   0.609   0.352  -0.174>

 computational grids:
      density     cutoff=100.000  fft=  24x  24x  42(    12515 waves     1042 per task)
      wavefnc   1 cutoff= 50.000  fft=  24x  24x  42(     4668 waves      389 per task)
      wavefnc   2 cutoff= 50.000  fft=  24x  24x  42(     4672 waves      389 per task)
      wavefnc   3 cutoff= 50.000  fft=  24x  24x  42(     4672 waves      389 per task)
      wavefnc   4 cutoff= 50.000  fft=  24x  24x  42(     4672 waves      389 per task)
      wavefnc   5 cutoff= 50.000  fft=  24x  24x  42(     4691 waves      390 per task)
      wavefnc   6 cutoff= 50.000  fft=  24x  24x  42(     4672 waves      389 per task)
      wavefnc   7 cutoff= 50.000  fft=  24x  24x  42(     4672 waves      389 per task)
      wavefnc   8 cutoff= 50.000  fft=  24x  24x  42(     4672 waves      389 per task)
      wavefnc   9 cutoff= 50.000  fft=  24x  24x  42(     4668 waves      389 per task)

 technical parameters:
      time step=      5.80     ficticious mass=  400000.0
      tolerance=.100E-06 (energy)   0.100E-06 (density)
      maximum iterations =      1000 (   10 inner    100 outer )



= energy calculation =


          ======== bundled Grassmann lmbfgs iteration ========
     >>>  ITERATION STARTED AT Wed Feb  1 19:05:41 2012  <<<
    iter.           Energy         DeltaE       DeltaRho 
    ------------------------------------------------------
     -  10 steepest descent iterations performed
      10   -0.3147678546E+02   -0.56158E+00    0.38982E+01
     -  10 steepest descent iterations performed
      20   -0.3390120038E+02   -0.68997E-01    0.80273E-01
     -  10 steepest descent iterations performed
      30   -0.3433221522E+02   -0.11541E-01    0.87028E-02
     -  10 steepest descent iterations performed
      40   -0.3438730930E+02   -0.81651E-03    0.58737E-03
      50   -0.3439187588E+02   -0.66144E-04    0.51227E-04
      60   -0.3439205357E+02   -0.57994E-05    0.15188E-05
      70   -0.3439207325E+02   -0.45469E-06    0.13752E-06
      80   -0.3439207476E+02   -0.71760E-07    0.81937E-08
  *** tolerance ok.    iteration terminated.
     >>>  ITERATION ENDED   AT Wed Feb  1 19:05:49 2012  <<<


          =============  summary of results  =================
 
 number of electrons: spin up=    8.00000  down=    8.00000 (real space)

 total     energy    :  -0.3439207476E+02 (   -0.68784E+01/ion)
 total orbital energy:  -0.2574344634E+01 (   -0.32179E+00/electron)
 hartree   energy    :   0.1173581017E+02 (    0.14670E+01/electron)
 exc-corr  energy    :  -0.8613345773E+01 (   -0.10767E+01/electron)
 ion-ion   energy    :  -0.2238090816E+02 (   -0.44762E+01/ion)

 K.S. kinetic energy :   0.2427914544E+02 (    0.30349E+01/electron)
 K.S. V_l  energy    :  -0.1232321845E+02 (   -0.15404E+01/electron)
 K.S. V_nl energy    :  -0.1996093604E+01 (   -0.24951E+00/electron)
 K.S. V_Hart energy  :   0.2347162033E+02 (    0.29340E+01/electron)
 K.S. V_xc energy    :  -0.1091233398E+02 (   -0.13640E+01/electron)
 K.S. V_so energy    :   0.0000000000E+00 (    0.00000E+00/electron)
 Virial Coefficient  :  -0.7249125412E-01

 Brillouin zone point:      1
    weight=  0.111111
    k     =<   0.333   0.333   0.250> . <b1,b2,b3> 
          =<   0.609   0.352   0.174>

 orbital energies:
     0.2595867E-01 (   0.706eV) occ=1.000
     0.1327430E-01 (   0.361eV) occ=1.000
     0.1327373E-01 (   0.361eV) occ=1.000
    -0.2199523E-01 (  -0.599eV) occ=1.000
    -0.1186719E+00 (  -3.229eV) occ=1.000
    -0.1186727E+00 (  -3.229eV) occ=1.000
    -0.5692018E+00 ( -15.489eV) occ=1.000
    -0.5692032E+00 ( -15.489eV) occ=1.000

 Brillouin zone point:      2
    weight=  0.111111
    k     =<   0.000   0.333   0.250> . <b1,b2,b3> 
          =<   0.203   0.352   0.174>

 orbital energies:
     0.6246079E-01 (   1.700eV) occ=1.000
     0.3596155E-01 (   0.979eV) occ=1.000
     0.1375514E-01 (   0.374eV) occ=1.000
    -0.7061321E-02 (  -0.192eV) occ=1.000
    -0.9572714E-01 (  -2.605eV) occ=1.000
    -0.1480852E+00 (  -4.030eV) occ=1.000
    -0.5660002E+00 ( -15.402eV) occ=1.000
    -0.5826911E+00 ( -15.856eV) occ=1.000

 Brillouin zone point:      3
    weight=  0.111111
    k     =<  -0.333   0.333   0.250> . <b1,b2,b3> 
          =<  -0.203   0.352   0.174>

 orbital energies:
     0.6123619E-01 (   1.666eV) occ=1.000
     0.3699465E-01 (   1.007eV) occ=1.000
     0.1778866E-01 (   0.484eV) occ=1.000
    -0.9548242E-02 (  -0.260eV) occ=1.000
    -0.9878052E-01 (  -2.688eV) occ=1.000
    -0.1456545E+00 (  -3.963eV) occ=1.000
    -0.5665621E+00 ( -15.417eV) occ=1.000
    -0.5822112E+00 ( -15.843eV) occ=1.000

 Brillouin zone point:      4
    weight=  0.111111
    k     =<   0.333   0.000   0.250> . <b1,b2,b3> 
          =<   0.406   0.000   0.174>

 orbital energies:
     0.6123248E-01 (   1.666eV) occ=1.000
     0.3699123E-01 (   1.007eV) occ=1.000
     0.1779131E-01 (   0.484eV) occ=1.000
    -0.9546260E-02 (  -0.260eV) occ=1.000
    -0.9878019E-01 (  -2.688eV) occ=1.000
    -0.1456546E+00 (  -3.963eV) occ=1.000
    -0.5665620E+00 ( -15.417eV) occ=1.000
    -0.5822111E+00 ( -15.843eV) occ=1.000

 Brillouin zone point:      5
    weight=  0.111111
    k     =<   0.000   0.000   0.250> . <b1,b2,b3> 
          =<   0.000   0.000   0.174>

 orbital energies:
     0.7102748E-01 (   1.933eV) occ=1.000
     0.7102247E-01 (   1.933eV) occ=1.000
     0.5136987E-01 (   1.398eV) occ=1.000
     0.5136545E-01 (   1.398eV) occ=1.000
    -0.7833241E-01 (  -2.132eV) occ=1.000
    -0.1696960E+00 (  -4.618eV) occ=1.000
    -0.5699219E+00 ( -15.508eV) occ=1.000
    -0.5985338E+00 ( -16.287eV) occ=1.000

 Brillouin zone point:      6
    weight=  0.111111
    k     =<   0.333   0.000  -0.250> . <b1,b2,b3> 
          =<   0.406   0.000  -0.174>

 orbital energies:
     0.6246031E-01 (   1.700eV) occ=1.000
     0.3596101E-01 (   0.979eV) occ=1.000
     0.1375578E-01 (   0.374eV) occ=1.000
    -0.7060928E-02 (  -0.192eV) occ=1.000
    -0.9572719E-01 (  -2.605eV) occ=1.000
    -0.1480851E+00 (  -4.030eV) occ=1.000
    -0.5660002E+00 ( -15.402eV) occ=1.000
    -0.5826911E+00 ( -15.856eV) occ=1.000

 Brillouin zone point:      7
    weight=  0.111111
    k     =<   0.333  -0.333   0.250> . <b1,b2,b3> 
          =<   0.203  -0.352   0.174>

 orbital energies:
     0.6246399E-01 (   1.700eV) occ=1.000
     0.3596444E-01 (   0.979eV) occ=1.000
     0.1375314E-01 (   0.374eV) occ=1.000
    -0.7063103E-02 (  -0.192eV) occ=1.000
    -0.9572716E-01 (  -2.605eV) occ=1.000
    -0.1480852E+00 (  -4.030eV) occ=1.000
    -0.5660003E+00 ( -15.402eV) occ=1.000
    -0.5826911E+00 ( -15.856eV) occ=1.000

 Brillouin zone point:      8
    weight=  0.111111
    k     =<   0.000   0.333  -0.250> . <b1,b2,b3> 
          =<   0.203   0.352  -0.174>

 orbital energies:
     0.6123300E-01 (   1.666eV) occ=1.000
     0.3699177E-01 (   1.007eV) occ=1.000
     0.1779082E-01 (   0.484eV) occ=1.000
    -0.9546572E-02 (  -0.260eV) occ=1.000
    -0.9878055E-01 (  -2.688eV) occ=1.000
    -0.1456544E+00 (  -3.963eV) occ=1.000
    -0.5665620E+00 ( -15.417eV) occ=1.000
    -0.5822111E+00 ( -15.843eV) occ=1.000

 Brillouin zone point:      9
    weight=  0.111111
    k     =<   0.333   0.333  -0.250> . <b1,b2,b3> 
          =<   0.609   0.352  -0.174>

 orbital energies:
     0.2595867E-01 (   0.706eV) occ=1.000
     0.1327427E-01 (   0.361eV) occ=1.000
     0.1327375E-01 (   0.361eV) occ=1.000
    -0.2199523E-01 (  -0.599eV) occ=1.000
    -0.1186719E+00 (  -3.229eV) occ=1.000
    -0.1186727E+00 (  -3.229eV) occ=1.000
    -0.5692018E+00 ( -15.489eV) occ=1.000
    -0.5692032E+00 ( -15.489eV) occ=1.000

 Total BAND energy   :  -0.3439207476E+02


=== Spin Contamination ===
 
 <Sexact^2> =     0.000000000000000     
 <S^2>      =     0.000000000000000     
 


========================
= Gradient calculation =
========================


Translation force removed: (    0.00000    0.00001    0.00000)


          =============  Ion Gradients =================
 Ion Forces:
        1 Mg   (    0.00000   -0.00001    0.00000 )
        2 O    (    0.00000    0.00001   -0.02737 )
        3 O    (    0.00000    0.00001    0.02737 )
        4 H    (    0.00000   -0.00002    0.02449 )
        5 H    (   -0.00001   -0.00001   -0.02450 )
        C.O.M. (    0.00000    0.00000    0.00000 )
          ===============================================
          |F|       =   0.519470E-01
          |F|/nion  =   0.103894E-01
          max|Fatom|=   0.273706E-01 (   1.407eV/Angstrom)


 
 Generated formatted_stress_filename: 
 /scratch/scratchdirs/ebylaska/SNWC/brucite-nosym_25/Mg.cpp2
 - Spline fitted, nray= 4485 -
 - filtered -
 
 Generated formatted_stress_filename: 
 /scratch/scratchdirs/ebylaska/SNWC/brucite-nosym_25/O.cpp2
 - Spline fitted, nray= 4485 -
 - filtered -
 
 Generated formatted_stress_filename: 
 /scratch/scratchdirs/ebylaska/SNWC/brucite-nosym_25/H.cpp2
 - Spline fitted, nray= 4485 -
 - filtered -


======================
= Stress calculation =
======================


          ============= total gradient ==============
      S =  (    0.01139    0.00567    0.00000 )
           (   -0.00002    0.00988    0.00000 )
           (    0.00000    0.00000   -0.00309 )
          ===================================================
          |S|      = 0.16402E-01
          pressure = 0.606E-02 au
                   = 0.178E+01 Mbar
                   = 0.178E+03 GPa
                   = 0.176E+07 atm

 
       dE/da     =     0.00987
       dE/db     =     0.00988
       dE/dc     =    -0.00309
       dE/dalpha =    -0.00002
       dE/dbeta  =     0.00003
       dE/dgamma =    -0.03376
 
 
 Writing Crystallographic Information File:
 /scratch/scratchdirs/ebylaska/SNWC/brucite-nosym_25/brucite-nosym.cif
   - cell not shifted (nwpw:cif_shift_cell .false.)

 output psi filename:/scratch/scratchdirs/ebylaska/SNWC/brucite-nosym_25/band-xxx-unknown-10160-2012-2-1-11:4.movecs


== Timing ==

cputime in seconds
  prologue    :   0.459771E+01
  main loop   :   0.101970E+02
  epilogue    :   0.404181E+00
  total       :   0.151989E+02
  cputime/step:   0.469907E-01       (     217 evalulations,      78 linesearches)


Time spent doing                        total          step
  FFTs                       :   0.844017E+00  0.388948E-02
  dot products               :   0.202255E+01  0.932048E-02
  geodesic                   :   0.877718E+00  0.404478E-02
  ffm_dgemm                  :   0.000000E+00  0.000000E+00
  fmf_dgemm                  :   0.000000E+00  0.000000E+00
  m_diagonalize              :   0.000000E+00  0.000000E+00
    - m_tredq                :   0.000000E+00  0.000000E+00
       - m_tredq_houseq      :   0.000000E+00  0.000000E+00
       - m_tredq_houseq_dgemm:   0.000000E+00  0.000000E+00
       - m_tredq_dgemm1      :   0.000000E+00  0.000000E+00
    - m_getdiags             :   0.000000E+00  0.000000E+00
    - m_tqliq                :   0.000000E+00  0.000000E+00
    - m_eigsrt               :   0.000000E+00  0.000000E+00
  exchange correlation       :   0.118268E+01  0.545013E-02
  local pseudopotentials     :   0.161314E-02  0.743383E-05
  non-local pseudopotentials :   0.400857E+00  0.184727E-02
  hartree potentials         :   0.145693E-01  0.671396E-04
  ion-ion interaction        :   0.304458E-01  0.140303E-03
  structure factors          :   0.150013E-01  0.691302E-04
  phase factors              :   0.000000E+00  0.000000E+00
  masking and packing        :   0.755854E+00  0.348320E-02
  queue fft                  :   0.405876E+01  0.187040E-01
  queue fft (serial)         :   0.116023E+01  0.534670E-02
  queue fft (message passing):   0.282452E+01  0.130162E-01
  HFX potential              :   0.000000E+00  0.000000E+00
  qmmm LJ                    :   0.000000E+00  0.000000E+00
  qmmm residual Q            :   0.000000E+00  0.000000E+00
 
     >>>  JOB COMPLETED     AT Wed Feb  1 19:05:52 2012  <<<

@ Step       Energy      Delta E   Gmax     Grms     Xrms     Xmax   Walltime
@ ---- ---------------- -------- -------- -------- -------- -------- --------
@    0     -34.39207476  0.0D+00  0.24673  0.10250  0.00000  0.00000     18.4
                                                                    

          **********************************************************
          *                                                        *
          *                   NWPW BAND Calculation                *
          *                                                        *
          *  [(bundled Grassman/Stiefel manifold implementation)]  *
          *                                                        *
          *         [ NorthWest Chemistry implementation ]         *
          *                                                        *
          *                version #1.10   01/31/03                *
          *                                                        *
          *  A pseudopotential plane-wave band structure program   *
          *  with Brillouin zone sampling for optimizing crystals, *
          *  slabs, and polymers.  Developed by Eric J. Bylaska    *
          *  , Edoardo Apra, and Patrick Nichols.                  *
          *                                                        *
          **********************************************************
     >>>  JOB STARTED       AT Wed Feb  1 19:05:52 2012  <<<
          ================ input data ========================
 Brillioun Zone Vectors do not match!
 
 pseudopotential is not correctly formatted:
 Mg.cpp                                            
 
 pseudopotential is not correctly formatted---bad brillioun zone:
 Mg.cpp                                            
 
 Generated formatted_filename: 
 /scratch/scratchdirs/ebylaska/SNWC/brucite-nosym_25/Mg.cpp
 - Spline fitted, nray= 4489 -
 - filtered -
 Brillioun Zone Vectors do not match!
 
 pseudopotential is not correctly formatted:
 O.cpp                                             
 
 pseudopotential is not correctly formatted---bad brillioun zone:
 O.cpp                                             
 
 Generated formatted_filename: 
 /scratch/scratchdirs/ebylaska/SNWC/brucite-nosym_25/O.cpp
 - Spline fitted, nray= 4489 -
 - filtered -
 Brillioun Zone Vectors do not match!
 
 pseudopotential is not correctly formatted:
 H.cpp                                             
 
 pseudopotential is not correctly formatted---bad brillioun zone:
 H.cpp                                             
 
 Generated formatted_filename: 
 /scratch/scratchdirs/ebylaska/SNWC/brucite-nosym_25/H.cpp
 - Spline fitted, nray= 4489 -
 - filtered -
 Error reading psi - bad unitcell
  - Ignored if the following  parameter is set
  - set nwpw:psi_nolattice .true.
 Error reading psi - bad unitcell
  - Ignored if the following  parameter is set
  - set nwpw:psi_nolattice .true.
 Error reading psi - bad unitcell
  - Ignored if the following  parameter is set
  - set nwpw:psi_nolattice .true.

 input psi filename:/scratch/scratchdirs/ebylaska/SNWC/brucite-nosym_25/band-xxx-unknown-10160-2012-2-1-11:4.movecs

 number of processors used:              48
 processor grid           :  12 x   1 x   4
 parallel mapping         :     2d  hilbert

 options:
      boundary conditions  = periodic    (version3)
      electron spin        = restricted
      exchange-correlation = PBE96 (White and Bird) parameterization

 elements involved in the cluster:
      1: Mg    core charge: 2.0  lmax=2
             comment    : Troullier-Martins pseudopotential
             pseudpotential type            :   0
             highest angular component      :   2
             local potential used           :   2
             number of non-local projections:   4
             semicore corrections included  :  1.730 (radius)  0.712 (charge)
             cutoff =   2.592   2.592   2.592
      2: O     core charge: 6.0  lmax=2
             comment    : Parameterized (Chem.Phys.Lett., vol 322, page 447) Hamman psp
             pseudpotential type            :   0
             highest angular component      :   2
             local potential used           :   2
             number of non-local projections:   4
             cutoff =   0.700   0.700   0.700
      3: H     core charge: 1.0  lmax=1
             comment    : Parameterized (Chem.Phys.Lett., vol 322, page 447) Hamman psp
             pseudpotential type            :   0
             highest angular component      :   1
             local potential used           :   1
             number of non-local projections:   1
             cutoff =   0.800   0.800

 total charge:   0.000

 atomic composition:
     Mg  :  1     O   :  2     H   :  2

 number of electrons: spin up=    8.00  spin down=    8.00 (fourier space)
 number of orbitals:  spin up=       8  spin down=       8 (fourier space)

 supercell:
      lattice:    a1=<   5.150  -2.974   0.000 >
                  a2=<   0.000   5.947   0.000 >
                  a3=<   0.000   0.000   9.017 >
      reciprocal: b1=<   1.220   0.000   0.000 >
                  b2=<   0.610   1.057   0.000 >
                  b3=<   0.000   0.000   0.697 >

      lattice:    a=   5.947    b=   5.947     c=   9.017
              alpha=  90.000 beta=  90.000 gamma= 120.006
      volume :      276.1
      ewald summation: cut radius=    3.00  and  8
                        madelung= 1.61659189

 brillouin zone:
      number of zone points:     9
      weight=   0.111  ks=<   0.333   0.333   0.250 >, k=<   0.610   0.352   0.174>
      weight=   0.111  ks=<   0.000   0.333   0.250 >, k=<   0.203   0.352   0.174>
      weight=   0.111  ks=<  -0.333   0.333   0.250 >, k=<  -0.203   0.352   0.174>
      weight=   0.111  ks=<   0.333   0.000   0.250 >, k=<   0.407   0.000   0.174>
      weight=   0.111  ks=<   0.000   0.000   0.250 >, k=<   0.000   0.000   0.174>
      weight=   0.111  ks=<   0.333   0.000  -0.250 >, k=<   0.407   0.000  -0.174>
      weight=   0.111  ks=<   0.333  -0.333   0.250 >, k=<   0.203  -0.352   0.174>
      weight=   0.111  ks=<   0.000   0.333  -0.250 >, k=<   0.203   0.352  -0.174>
      weight=   0.111  ks=<   0.333   0.333  -0.250 >, k=<   0.610   0.352  -0.174>

 computational grids:
      density     cutoff=100.000  fft=  24x  24x  42(    12515 waves     1042 per task)
      wavefnc   1 cutoff= 50.000  fft=  24x  24x  42(     4668 waves      389 per task)
      wavefnc   2 cutoff= 50.000  fft=  24x  24x  42(     4672 waves      389 per task)
      wavefnc   3 cutoff= 50.000  fft=  24x  24x  42(     4672 waves      389 per task)
      wavefnc   4 cutoff= 50.000  fft=  24x  24x  42(     4672 waves      389 per task)
      wavefnc   5 cutoff= 50.000  fft=  24x  24x  42(     4691 waves      390 per task)
      wavefnc   6 cutoff= 50.000  fft=  24x  24x  42(     4672 waves      389 per task)
      wavefnc   7 cutoff= 50.000  fft=  24x  24x  42(     4672 waves      389 per task)
      wavefnc   8 cutoff= 50.000  fft=  24x  24x  42(     4672 waves      389 per task)
      wavefnc   9 cutoff= 50.000  fft=  24x  24x  42(     4668 waves      389 per task)

 technical parameters:
      time step=      5.80     ficticious mass=  400000.0
      tolerance=.100E-06 (energy)   0.100E-06 (density)
      maximum iterations =      1000 (   10 inner    100 outer )



= energy calculation =


          ======== bundled Grassmann lmbfgs iteration ========
     >>>  ITERATION STARTED AT Wed Feb  1 19:05:55 2012  <<<
    iter.           Energy         DeltaE       DeltaRho 
    ------------------------------------------------------
      10   -0.3439329237E+02   -0.37615E-04    0.51281E-02
      20   -0.3439339544E+02   -0.15952E-05    0.90769E-05
      30   -0.3439339935E+02   -0.96605E-07    0.32359E-07
  *** tolerance ok.    iteration terminated.
     >>>  ITERATION ENDED   AT Wed Feb  1 19:05:57 2012  <<<


          =============  summary of results  =================
 
 number of electrons: spin up=    8.00000  down=    8.00000 (real space)

 total     energy    :  -0.3439339935E+02 (   -0.68787E+01/ion)
 total orbital energy:  -0.2514150097E+01 (   -0.31427E+00/electron)
 hartree   energy    :   0.1163924153E+02 (    0.14549E+01/electron)
 exc-corr  energy    :  -0.8588857137E+01 (   -0.10736E+01/electron)
 ion-ion   energy    :  -0.2253161058E+02 (   -0.45063E+01/ion)

 K.S. kinetic energy :   0.2416450963E+02 (    0.30206E+01/electron)
 K.S. V_l  energy    :  -0.1222844235E+02 (   -0.15286E+01/electron)
 K.S. V_nl energy    :  -0.1945004821E+01 (   -0.24313E+00/electron)
 K.S. V_Hart energy  :   0.2327848306E+02 (    0.29098E+01/electron)
 K.S. V_xc energy    :  -0.1088046000E+02 (   -0.13601E+01/electron)
 K.S. V_so energy    :   0.0000000000E+00 (    0.00000E+00/electron)
 Virial Coefficient  :  -0.7347238285E-01

 Brillouin zone point:      1
    weight=  0.111111
    k     =<   0.333   0.333   0.250> . <b1,b2,b3> 
          =<   0.610   0.352   0.174>

 orbital energies:
     0.2767949E-01 (   0.753eV) occ=1.000
     0.1496976E-01 (   0.407eV) occ=1.000
     0.1496467E-01 (   0.407eV) occ=1.000
    -0.2141770E-01 (  -0.583eV) occ=1.000
    -0.1145557E+00 (  -3.117eV) occ=1.000
    -0.1145709E+00 (  -3.118eV) occ=1.000
    -0.5610872E+00 ( -15.268eV) occ=1.000
    -0.5610920E+00 ( -15.268eV) occ=1.000

 Brillouin zone point:      2
    weight=  0.111111
    k     =<   0.000   0.333   0.250> . <b1,b2,b3> 
          =<   0.203   0.352   0.174>

 orbital energies:
     0.6413994E-01 (   1.745eV) occ=1.000
     0.3676112E-01 (   1.000eV) occ=1.000
     0.1616473E-01 (   0.440eV) occ=1.000
    -0.6134322E-02 (  -0.167eV) occ=1.000
    -0.9129740E-01 (  -2.484eV) occ=1.000
    -0.1440020E+00 (  -3.919eV) occ=1.000
    -0.5578399E+00 ( -15.180eV) occ=1.000
    -0.5750726E+00 ( -15.649eV) occ=1.000

 Brillouin zone point:      3
    weight=  0.111111
    k     =<  -0.333   0.333   0.250> . <b1,b2,b3> 
          =<  -0.203   0.352   0.174>

 orbital energies:
     0.6294664E-01 (   1.713eV) occ=1.000
     0.3779959E-01 (   1.029eV) occ=1.000
     0.1941895E-01 (   0.528eV) occ=1.000
    -0.7698960E-02 (  -0.210eV) occ=1.000
    -0.9448421E-01 (  -2.571eV) occ=1.000
    -0.1415631E+00 (  -3.852eV) occ=1.000
    -0.5584188E+00 ( -15.195eV) occ=1.000
    -0.5745879E+00 ( -15.635eV) occ=1.000

 Brillouin zone point:      4
    weight=  0.111111
    k     =<   0.333   0.000   0.250> . <b1,b2,b3> 
          =<   0.407   0.000   0.174>

 orbital energies:
     0.6292525E-01 (   1.712eV) occ=1.000
     0.3777255E-01 (   1.028eV) occ=1.000
     0.1942194E-01 (   0.529eV) occ=1.000
    -0.7684095E-02 (  -0.209eV) occ=1.000
    -0.9449011E-01 (  -2.571eV) occ=1.000
    -0.1415526E+00 (  -3.852eV) occ=1.000
    -0.5584165E+00 ( -15.195eV) occ=1.000
    -0.5745827E+00 ( -15.635eV) occ=1.000

 Brillouin zone point:      5
    weight=  0.111111
    k     =<   0.000   0.000   0.250> . <b1,b2,b3> 
          =<   0.000   0.000   0.174>

 orbital energies:
     0.7273634E-01 (   1.979eV) occ=1.000
     0.7271444E-01 (   1.979eV) occ=1.000
     0.5222162E-01 (   1.421eV) occ=1.000
     0.5220308E-01 (   1.421eV) occ=1.000
    -0.7262696E-01 (  -1.976eV) occ=1.000
    -0.1655954E+00 (  -4.506eV) occ=1.000
    -0.5619233E+00 ( -15.291eV) occ=1.000
    -0.5915632E+00 ( -16.097eV) occ=1.000

 Brillouin zone point:      6
    weight=  0.111111
    k     =<   0.333   0.000  -0.250> . <b1,b2,b3> 
          =<   0.407   0.000  -0.174>

 orbital energies:
     0.6413981E-01 (   1.745eV) occ=1.000
     0.3676125E-01 (   1.000eV) occ=1.000
     0.1616415E-01 (   0.440eV) occ=1.000
    -0.6133396E-02 (  -0.167eV) occ=1.000
    -0.9129708E-01 (  -2.484eV) occ=1.000
    -0.1440025E+00 (  -3.919eV) occ=1.000
    -0.5578399E+00 ( -15.180eV) occ=1.000
    -0.5750726E+00 ( -15.649eV) occ=1.000

 Brillouin zone point:      7
    weight=  0.111111
    k     =<   0.333  -0.333   0.250> . <b1,b2,b3> 
          =<   0.203  -0.352   0.174>

 orbital energies:
     0.6416151E-01 (   1.746eV) occ=1.000
     0.3678802E-01 (   1.001eV) occ=1.000
     0.1616499E-01 (   0.440eV) occ=1.000
    -0.6149033E-02 (  -0.167eV) occ=1.000
    -0.9130010E-01 (  -2.484eV) occ=1.000
    -0.1440069E+00 (  -3.919eV) occ=1.000
    -0.5578425E+00 ( -15.180eV) occ=1.000
    -0.5750776E+00 ( -15.649eV) occ=1.000

 Brillouin zone point:      8
    weight=  0.111111
    k     =<   0.000   0.333  -0.250> . <b1,b2,b3> 
          =<   0.203   0.352  -0.174>

 orbital energies:
     0.6292539E-01 (   1.712eV) occ=1.000
     0.3777240E-01 (   1.028eV) occ=1.000
     0.1942203E-01 (   0.529eV) occ=1.000
    -0.7684988E-02 (  -0.209eV) occ=1.000
    -0.9448895E-01 (  -2.571eV) occ=1.000
    -0.1415532E+00 (  -3.852eV) occ=1.000
    -0.5584164E+00 ( -15.195eV) occ=1.000
    -0.5745827E+00 ( -15.635eV) occ=1.000

 Brillouin zone point:      9
    weight=  0.111111
    k     =<   0.333   0.333  -0.250> . <b1,b2,b3> 
          =<   0.610   0.352  -0.174>

 orbital energies:
     0.2767949E-01 (   0.753eV) occ=1.000
     0.1496955E-01 (   0.407eV) occ=1.000
     0.1496488E-01 (   0.407eV) occ=1.000
    -0.2141770E-01 (  -0.583eV) occ=1.000
    -0.1145561E+00 (  -3.117eV) occ=1.000
    -0.1145706E+00 (  -3.118eV) occ=1.000
    -0.5610872E+00 ( -15.268eV) occ=1.000
    -0.5610920E+00 ( -15.268eV) occ=1.000

 Total BAND energy   :  -0.3439339935E+02


=== Spin Contamination ===
 
 <Sexact^2> =     0.000000000000000     
 <S^2>      =     0.000000000000000     
 
 
 Writing Crystallographic Information File:
 /scratch/scratchdirs/ebylaska/SNWC/brucite-nosym_25/brucite-nosym.cif
   - cell not shifted (nwpw:cif_shift_cell .false.)

 output psi filename:/scratch/scratchdirs/ebylaska/SNWC/brucite-nosym_25/band-xxx-unknown-10160-2012-2-1-11:4.movecs


== Timing ==

cputime in seconds
  prologue    :   0.269891E+01
  main loop   :   0.216212E+01
  epilogue    :   0.402648E+00
  total       :   0.526368E+01
  cputime/step:   0.332634E-01       (      65 evalulations,      29 linesearches)


Time spent doing                        total          step
  FFTs                       :   0.248352E+00  0.382080E-02
  dot products               :   0.505224E+00  0.777267E-02
  geodesic                   :   0.231855E+00  0.356699E-02
  ffm_dgemm                  :   0.000000E+00  0.000000E+00
  fmf_dgemm                  :   0.000000E+00  0.000000E+00
  m_diagonalize              :   0.000000E+00  0.000000E+00
    - m_tredq                :   0.000000E+00  0.000000E+00
       - m_tredq_houseq      :   0.000000E+00  0.000000E+00
       - m_tredq_houseq_dgemm:   0.000000E+00  0.000000E+00
       - m_tredq_dgemm1      :   0.000000E+00  0.000000E+00
    - m_getdiags             :   0.000000E+00  0.000000E+00
    - m_tqliq                :   0.000000E+00  0.000000E+00
    - m_eigsrt               :   0.000000E+00  0.000000E+00
  exchange correlation       :   0.353673E+00  0.544112E-02
  local pseudopotentials     :   0.129938E-03  0.199905E-05
  non-local pseudopotentials :   0.112749E+00  0.173459E-02
  hartree potentials         :   0.523734E-02  0.805745E-04
  ion-ion interaction        :   0.555897E-02  0.855226E-04
  structure factors          :   0.456547E-02  0.702381E-04
  phase factors              :   0.000000E+00  0.000000E+00
  masking and packing        :   0.225498E+00  0.346920E-02
  queue fft                  :   0.121132E+01  0.186356E-01
  queue fft (serial)         :   0.346753E+00  0.533467E-02
  queue fft (message passing):   0.842306E+00  0.129586E-01
  HFX potential              :   0.000000E+00  0.000000E+00
  qmmm LJ                    :   0.000000E+00  0.000000E+00
  qmmm residual Q            :   0.000000E+00  0.000000E+00
 
     >>>  JOB COMPLETED     AT Wed Feb  1 19:05:57 2012  <<<
 Line search: 
     step= 1.00 grad=-3.0D-03 hess= 1.7D-03 energy=    -34.393399 mode=downhill
 new step= 0.90                   predicted energy=    -34.393416

          --------
          Step   1
          --------
 
 
                         Geometry "geometry" -> "geometry"
                         ---------------------------------
 
 Output coordinates in angstroms (scale by  1.889725989 to convert to a.u.)
 
  No.       Tag          Charge          X              Y              Z
 ---- ---------------- ---------- -------------- -------------- --------------
    1 Mg                  12.0000     0.00004845     0.00002558     4.77128887
    2 O                    8.0000     0.90853105     1.57358316     1.03986042
    3 O                    8.0000     1.81702980    -0.00015164     3.73141829
    4 H                    1.0000     0.90845587     1.57342607     1.98577302
    5 H                    1.0000     1.81686807    -0.00018200     2.78550062
 
      Lattice Parameters 
      ------------------ 
 
      lattice vectors in angstroms (scale by  1.889725989 to convert to a.u.)
 
      a1=<   2.725  -1.574   0.000 >
      a2=<   0.000   3.147   0.000 >
      a3=<   0.000   0.000   4.771 >
      a=       3.147 b=      3.147 c=       4.771
      alpha=  90.000 beta=  90.000 gamma= 120.006
      omega=    40.9
 
      reciprocal lattice vectors in a.u.
 
      b1=<   1.220   0.000   0.000 >
      b2=<   0.610   1.056   0.000 >
      b3=<   0.000   0.000   0.697 >
 
      Atomic Mass 
      ----------- 
 
      Mg                23.985040
      O                 15.994910
      H                  1.007825
 
 
          **********************************************************
          *                                                        *
          *                   NWPW BAND Calculation                *
          *                                                        *
          *  [(bundled Grassman/Stiefel manifold implementation)]  *
          *                                                        *
          *         [ NorthWest Chemistry implementation ]         *
          *                                                        *
          *                version #1.10   01/31/03                *
          *                                                        *
          *  A pseudopotential plane-wave band structure program   *
          *  with Brillouin zone sampling for optimizing crystals, *
          *  slabs, and polymers.  Developed by Eric J. Bylaska    *
          *  , Edoardo Apra, and Patrick Nichols.                  *
          *                                                        *
          **********************************************************
     >>>  JOB STARTED       AT Wed Feb  1 19:05:57 2012  <<<
          ================ input data ========================
 Brillioun Zone Vectors do not match!
 
 pseudopotential is not correctly formatted:
 Mg.cpp                                            
 
 pseudopotential is not correctly formatted---bad brillioun zone:
 Mg.cpp                                            
 
 Generated formatted_filename: 
 /scratch/scratchdirs/ebylaska/SNWC/brucite-nosym_25/Mg.cpp
 - Spline fitted, nray= 4489 -
 - filtered -
 Brillioun Zone Vectors do not match!
 
 pseudopotential is not correctly formatted:
 O.cpp                                             
 
 pseudopotential is not correctly formatted---bad brillioun zone:
 O.cpp                                             
 
 Generated formatted_filename: 
 /scratch/scratchdirs/ebylaska/SNWC/brucite-nosym_25/O.cpp
 - Spline fitted, nray= 4489 -
 - filtered -
 Brillioun Zone Vectors do not match!
 
 pseudopotential is not correctly formatted:
 H.cpp                                             
 
 pseudopotential is not correctly formatted---bad brillioun zone:
 H.cpp                                             
 
 Generated formatted_filename: 
 /scratch/scratchdirs/ebylaska/SNWC/brucite-nosym_25/H.cpp
 - Spline fitted, nray= 4489 -
 - filtered -
 Error reading psi - bad unitcell
  - Ignored if the following  parameter is set
  - set nwpw:psi_nolattice .true.
 Error reading psi - bad unitcell
  - Ignored if the following  parameter is set
  - set nwpw:psi_nolattice .true.
 Error reading psi - bad unitcell
  - Ignored if the following  parameter is set
  - set nwpw:psi_nolattice .true.

 input psi filename:/scratch/scratchdirs/ebylaska/SNWC/brucite-nosym_25/band-xxx-unknown-10160-2012-2-1-11:4.movecs

 number of processors used:              48
 processor grid           :  12 x   1 x   4
 parallel mapping         :     2d  hilbert

 options:
      boundary conditions  = periodic    (version3)
      electron spin        = restricted
      exchange-correlation = PBE96 (White and Bird) parameterization

 elements involved in the cluster:
      1: Mg    core charge: 2.0  lmax=2
             comment    : Troullier-Martins pseudopotential
             pseudpotential type            :   0
             highest angular component      :   2
             local potential used           :   2
             number of non-local projections:   4
             semicore corrections included  :  1.730 (radius)  0.712 (charge)
             cutoff =   2.592   2.592   2.592
      2: O     core charge: 6.0  lmax=2
             comment    : Parameterized (Chem.Phys.Lett., vol 322, page 447) Hamman psp
             pseudpotential type            :   0
             highest angular component      :   2
             local potential used           :   2
             number of non-local projections:   4
             cutoff =   0.700   0.700   0.700
      3: H     core charge: 1.0  lmax=1
             comment    : Parameterized (Chem.Phys.Lett., vol 322, page 447) Hamman psp
             pseudpotential type            :   0
             highest angular component      :   1
             local potential used           :   1
             number of non-local projections:   1
             cutoff =   0.800   0.800

 total charge:   0.000

 atomic composition:
     Mg  :  1     O   :  2     H   :  2

 number of electrons: spin up=    8.00  spin down=    8.00 (fourier space)
 number of orbitals:  spin up=       8  spin down=       8 (fourier space)

 supercell:
      lattice:    a1=<   5.150  -2.974   0.000 >
                  a2=<   0.000   5.947   0.000 >
                  a3=<   0.000   0.000   9.016 >
      reciprocal: b1=<   1.220   0.000   0.000 >
                  b2=<   0.610   1.056   0.000 >
                  b3=<   0.000   0.000   0.697 >

      lattice:    a=   5.947    b=   5.947     c=   9.016
              alpha=  90.000 beta=  90.000 gamma= 120.006
      volume :      276.2
      ewald summation: cut radius=    3.00  and  8
                        madelung= 1.61667805

 brillouin zone:
      number of zone points:     9
      weight=   0.111  ks=<   0.333   0.333   0.250 >, k=<   0.610   0.352   0.174>
      weight=   0.111  ks=<   0.000   0.333   0.250 >, k=<   0.203   0.352   0.174>
      weight=   0.111  ks=<  -0.333   0.333   0.250 >, k=<  -0.203   0.352   0.174>
      weight=   0.111  ks=<   0.333   0.000   0.250 >, k=<   0.407   0.000   0.174>
      weight=   0.111  ks=<   0.000   0.000   0.250 >, k=<   0.000   0.000   0.174>
      weight=   0.111  ks=<   0.333   0.000  -0.250 >, k=<   0.407   0.000  -0.174>
      weight=   0.111  ks=<   0.333  -0.333   0.250 >, k=<   0.203  -0.352   0.174>
      weight=   0.111  ks=<   0.000   0.333  -0.250 >, k=<   0.203   0.352  -0.174>
      weight=   0.111  ks=<   0.333   0.333  -0.250 >, k=<   0.610   0.352  -0.174>

 computational grids:
      density     cutoff=100.000  fft=  24x  24x  42(    12515 waves     1042 per task)
      wavefnc   1 cutoff= 50.000  fft=  24x  24x  42(     4668 waves      389 per task)
      wavefnc   2 cutoff= 50.000  fft=  24x  24x  42(     4672 waves      389 per task)
      wavefnc   3 cutoff= 50.000  fft=  24x  24x  42(     4672 waves      389 per task)
      wavefnc   4 cutoff= 50.000  fft=  24x  24x  42(     4672 waves      389 per task)
      wavefnc   5 cutoff= 50.000  fft=  24x  24x  42(     4691 waves      390 per task)
      wavefnc   6 cutoff= 50.000  fft=  24x  24x  42(     4672 waves      389 per task)
      wavefnc   7 cutoff= 50.000  fft=  24x  24x  42(     4672 waves      389 per task)
      wavefnc   8 cutoff= 50.000  fft=  24x  24x  42(     4672 waves      389 per task)
      wavefnc   9 cutoff= 50.000  fft=  24x  24x  42(     4668 waves      389 per task)

 technical parameters:
      time step=      5.80     ficticious mass=  400000.0
      tolerance=.100E-06 (energy)   0.100E-06 (density)
      maximum iterations =      1000 (   10 inner    100 outer )



= energy calculation =


          ======== bundled Grassmann lmbfgs iteration ========
     >>>  ITERATION STARTED AT Wed Feb  1 19:06:00 2012  <<<
    iter.           Energy         DeltaE       DeltaRho 
    ------------------------------------------------------
      10   -0.3439340675E+02   -0.39320E-06    0.50562E-04
      20   -0.3439340765E+02   -0.96787E-07    0.50638E-07
  *** tolerance ok.    iteration terminated.
     >>>  ITERATION ENDED   AT Wed Feb  1 19:06:01 2012  <<<


          =============  summary of results  =================
 
 number of electrons: spin up=    8.00000  down=    8.00000 (real space)

 total     energy    :  -0.3439340765E+02 (   -0.68787E+01/ion)
 total orbital energy:  -0.2520088318E+01 (   -0.31501E+00/electron)
 hartree   energy    :   0.1164833525E+02 (    0.14560E+01/electron)
 exc-corr  energy    :  -0.8591218319E+01 (   -0.10739E+01/electron)
 ion-ion   energy    :  -0.2251730004E+02 (   -0.45035E+01/ion)

 K.S. kinetic energy :   0.2417524583E+02 (    0.30219E+01/electron)
 K.S. V_l  energy    :  -0.1223757454E+02 (   -0.15297E+01/electron)
 K.S. V_nl energy    :  -0.1949707415E+01 (   -0.24371E+00/electron)
 K.S. V_Hart energy  :   0.2329667049E+02 (    0.29121E+01/electron)
 K.S. V_xc energy    :  -0.1088353426E+02 (   -0.13604E+01/electron)
 K.S. V_so energy    :   0.0000000000E+00 (    0.00000E+00/electron)
 Virial Coefficient  :  -0.7338687437E-01

 Brillouin zone point:      1
    weight=  0.111111
    k     =<   0.333   0.333   0.250> . <b1,b2,b3> 
          =<   0.610   0.352   0.174>

 orbital energies:
     0.2750271E-01 (   0.748eV) occ=1.000
     0.1479533E-01 (   0.403eV) occ=1.000
     0.1479070E-01 (   0.402eV) occ=1.000
    -0.2147816E-01 (  -0.584eV) occ=1.000
    -0.1149666E+00 (  -3.128eV) occ=1.000
    -0.1149804E+00 (  -3.129eV) occ=1.000
    -0.5618715E+00 ( -15.289eV) occ=1.000
    -0.5618758E+00 ( -15.290eV) occ=1.000

 Brillouin zone point:      2
    weight=  0.111111
    k     =<   0.000   0.333   0.250> . <b1,b2,b3> 
          =<   0.203   0.352   0.174>

 orbital energies:
     0.6396715E-01 (   1.741eV) occ=1.000
     0.3667855E-01 (   0.998eV) occ=1.000
     0.1591574E-01 (   0.433eV) occ=1.000
    -0.6229742E-02 (  -0.170eV) occ=1.000
    -0.9173793E-01 (  -2.496eV) occ=1.000
    -0.1444076E+00 (  -3.930eV) occ=1.000
    -0.5586305E+00 ( -15.201eV) occ=1.000
    -0.5758062E+00 ( -15.669eV) occ=1.000

 Brillouin zone point:      3
    weight=  0.111111
    k     =<  -0.333   0.333   0.250> . <b1,b2,b3> 
          =<  -0.203   0.352   0.174>

 orbital energies:
     0.6277066E-01 (   1.708eV) occ=1.000
     0.3771634E-01 (   1.026eV) occ=1.000
     0.1925143E-01 (   0.524eV) occ=1.000
    -0.7890306E-02 (  -0.215eV) occ=1.000
    -0.9491256E-01 (  -2.583eV) occ=1.000
    -0.1419680E+00 (  -3.863eV) occ=1.000
    -0.5592080E+00 ( -15.217eV) occ=1.000
    -0.5753218E+00 ( -15.655eV) occ=1.000

 Brillouin zone point:      4
    weight=  0.111111
    k     =<   0.333   0.000   0.250> . <b1,b2,b3> 
          =<   0.407   0.000   0.174>

 orbital energies:
     0.6275121E-01 (   1.708eV) occ=1.000
     0.3769184E-01 (   1.026eV) occ=1.000
     0.1925424E-01 (   0.524eV) occ=1.000
    -0.7876826E-02 (  -0.214eV) occ=1.000
    -0.9491791E-01 (  -2.583eV) occ=1.000
    -0.1419586E+00 (  -3.863eV) occ=1.000
    -0.5592059E+00 ( -15.217eV) occ=1.000
    -0.5753171E+00 ( -15.655eV) occ=1.000

 Brillouin zone point:      5
    weight=  0.111111
    k     =<   0.000   0.000   0.250> . <b1,b2,b3> 
          =<   0.000   0.000   0.174>

 orbital energies:
     0.7256092E-01 (   1.974eV) occ=1.000
     0.7254093E-01 (   1.974eV) occ=1.000
     0.5213366E-01 (   1.419eV) occ=1.000
     0.5211673E-01 (   1.418eV) occ=1.000
    -0.7319749E-01 (  -1.992eV) occ=1.000
    -0.1659983E+00 (  -4.517eV) occ=1.000
    -0.5626999E+00 ( -15.312eV) occ=1.000
    -0.5922319E+00 ( -16.116eV) occ=1.000

 Brillouin zone point:      6
    weight=  0.111111
    k     =<   0.333   0.000  -0.250> . <b1,b2,b3> 
          =<   0.407   0.000  -0.174>

 orbital energies:
     0.6396704E-01 (   1.741eV) occ=1.000
     0.3667868E-01 (   0.998eV) occ=1.000
     0.1591520E-01 (   0.433eV) occ=1.000
    -0.6228917E-02 (  -0.169eV) occ=1.000
    -0.9173763E-01 (  -2.496eV) occ=1.000
    -0.1444080E+00 (  -3.930eV) occ=1.000
    -0.5586305E+00 ( -15.201eV) occ=1.000
    -0.5758063E+00 ( -15.669eV) occ=1.000

 Brillouin zone point:      7
    weight=  0.111111
    k     =<   0.333  -0.333   0.250> . <b1,b2,b3> 
          =<   0.203  -0.352   0.174>

 orbital energies:
     0.6398677E-01 (   1.741eV) occ=1.000
     0.3670294E-01 (   0.999eV) occ=1.000
     0.1591589E-01 (   0.433eV) occ=1.000
    -0.6243094E-02 (  -0.170eV) occ=1.000
    -0.9174033E-01 (  -2.496eV) occ=1.000
    -0.1444121E+00 (  -3.930eV) occ=1.000
    -0.5586328E+00 ( -15.201eV) occ=1.000
    -0.5758108E+00 ( -15.669eV) occ=1.000

 Brillouin zone point:      8
    weight=  0.111111
    k     =<   0.000   0.333  -0.250> . <b1,b2,b3> 
          =<   0.203   0.352  -0.174>

 orbital energies:
     0.6275133E-01 (   1.708eV) occ=1.000
     0.3769170E-01 (   1.026eV) occ=1.000
     0.1925433E-01 (   0.524eV) occ=1.000
    -0.7877632E-02 (  -0.214eV) occ=1.000
    -0.9491684E-01 (  -2.583eV) occ=1.000
    -0.1419591E+00 (  -3.863eV) occ=1.000
    -0.5592058E+00 ( -15.217eV) occ=1.000
    -0.5753171E+00 ( -15.655eV) occ=1.000

 Brillouin zone point:      9
    weight=  0.111111
    k     =<   0.333   0.333  -0.250> . <b1,b2,b3> 
          =<   0.610   0.352  -0.174>

 orbital energies:
     0.2750271E-01 (   0.748eV) occ=1.000
     0.1479515E-01 (   0.403eV) occ=1.000
     0.1479088E-01 (   0.402eV) occ=1.000
    -0.2147816E-01 (  -0.584eV) occ=1.000
    -0.1149670E+00 (  -3.128eV) occ=1.000
    -0.1149800E+00 (  -3.129eV) occ=1.000
    -0.5618715E+00 ( -15.289eV) occ=1.000
    -0.5618757E+00 ( -15.290eV) occ=1.000

 Total BAND energy   :  -0.3439340765E+02


=== Spin Contamination ===
 
 <Sexact^2> =     0.000000000000000     
 <S^2>      =     0.000000000000000     
 


========================
= Gradient calculation =
========================


Translation force removed: (    0.00000    0.00000    0.00000)


          =============  Ion Gradients =================
 Ion Forces:
        1 Mg   (    0.00000    0.00000    0.00000 )
        2 O    (    0.00000    0.00000    0.00002 )
        3 O    (    0.00000    0.00000   -0.00002 )
        4 H    (    0.00000    0.00000   -0.00026 )
        5 H    (    0.00000    0.00000    0.00027 )
        C.O.M. (    0.00000    0.00000    0.00000 )
          ===============================================
          |F|       =   0.379542E-03
          |F|/nion  =   0.759083E-04
          max|Fatom|=   0.271167E-03 (   0.014eV/Angstrom)


 pseudopotential is not correctly formatted:
 Mg.cpp2                                           
 
 pseudopotential is not correctly formatted-bad brillioun zone:
 Mg.cpp2                                           
 
 Generated formatted_stress_filename: 
 /scratch/scratchdirs/ebylaska/SNWC/brucite-nosym_25/Mg.cpp2
 - Spline fitted, nray= 4489 -
 - filtered -
 pseudopotential is not correctly formatted:
 O.cpp2                                            
 
 pseudopotential is not correctly formatted-bad brillioun zone:
 O.cpp2                                            
 
 Generated formatted_stress_filename: 
 /scratch/scratchdirs/ebylaska/SNWC/brucite-nosym_25/O.cpp2
 - Spline fitted, nray= 4489 -
 - filtered -
 pseudopotential is not correctly formatted:
 H.cpp2                                            
 
 pseudopotential is not correctly formatted-bad brillioun zone:
 H.cpp2                                            
 
 Generated formatted_stress_filename: 
 /scratch/scratchdirs/ebylaska/SNWC/brucite-nosym_25/H.cpp2
 - Spline fitted, nray= 4489 -
 - filtered -


======================
= Stress calculation =
======================


          ============= total gradient ==============
      S =  (    0.01003    0.00498    0.00000 )
           (   -0.00004    0.00870    0.00000 )
           (    0.00000    0.00000    0.00559 )
          ===================================================
          |S|      = 0.15244E-01
          pressure = 0.811E-02 au
                   = 0.239E+01 Mbar
                   = 0.239E+03 GPa
                   = 0.235E+07 atm

 
       dE/da     =     0.00870
       dE/db     =     0.00870
       dE/dc     =     0.00559
       dE/dalpha =     0.00000
       dE/dbeta  =     0.00001
       dE/dgamma =    -0.02963
 
 
 Writing Crystallographic Information File:
 /scratch/scratchdirs/ebylaska/SNWC/brucite-nosym_25/brucite-nosym.cif
   - cell not shifted (nwpw:cif_shift_cell .false.)

 output psi filename:/scratch/scratchdirs/ebylaska/SNWC/brucite-nosym_25/band-xxx-unknown-10160-2012-2-1-11:4.movecs


== Timing ==

cputime in seconds
  prologue    :   0.267519E+01
  main loop   :   0.397255E+01
  epilogue    :   0.398730E+00
  total       :   0.704648E+01
  cputime/step:   0.113502E+00       (      35 evalulations,      15 linesearches)


Time spent doing                        total          step
  FFTs                       :   0.143437E+00  0.409821E-02
  dot products               :   0.719798E+00  0.205657E-01
  geodesic                   :   0.104846E+00  0.299559E-02
  ffm_dgemm                  :   0.000000E+00  0.000000E+00
  fmf_dgemm                  :   0.000000E+00  0.000000E+00
  m_diagonalize              :   0.000000E+00  0.000000E+00
    - m_tredq                :   0.000000E+00  0.000000E+00
       - m_tredq_houseq      :   0.000000E+00  0.000000E+00
       - m_tredq_houseq_dgemm:   0.000000E+00  0.000000E+00
       - m_tredq_dgemm1      :   0.000000E+00  0.000000E+00
    - m_getdiags             :   0.000000E+00  0.000000E+00
    - m_tqliq                :   0.000000E+00  0.000000E+00
    - m_eigsrt               :   0.000000E+00  0.000000E+00
  exchange correlation       :   0.194567E+00  0.555906E-02
  local pseudopotentials     :   0.157452E-02  0.449862E-04
  non-local pseudopotentials :   0.875139E-01  0.250040E-02
  hartree potentials         :   0.286007E-02  0.817162E-04
  ion-ion interaction        :   0.192108E-01  0.548880E-03
  structure factors          :   0.337956E-02  0.965588E-04
  phase factors              :   0.000000E+00  0.000000E+00
  masking and packing        :   0.129686E+00  0.370532E-02
  queue fft                  :   0.651509E+00  0.186145E-01
  queue fft (serial)         :   0.187649E+00  0.536139E-02
  queue fft (message passing):   0.451968E+00  0.129134E-01
  HFX potential              :   0.000000E+00  0.000000E+00
  qmmm LJ                    :   0.000000E+00  0.000000E+00
  qmmm residual Q            :   0.000000E+00  0.000000E+00
 
     >>>  JOB COMPLETED     AT Wed Feb  1 19:06:04 2012  <<<

  Step       Energy      Delta E   Gmax     Grms     Xrms     Xmax   Walltime
  ---- ---------------- -------- -------- -------- -------- -------- --------
@    1     -34.39340765 -1.3D-03  0.02963  0.00715  0.00202  0.00500     30.7
                                                                    

          **********************************************************
          *                                                        *
          *                   NWPW BAND Calculation                *
          *                                                        *
          *  [(bundled Grassman/Stiefel manifold implementation)]  *
          *                                                        *
          *         [ NorthWest Chemistry implementation ]         *
          *                                                        *
          *                version #1.10   01/31/03                *
          *                                                        *
          *  A pseudopotential plane-wave band structure program   *
          *  with Brillouin zone sampling for optimizing crystals, *
          *  slabs, and polymers.  Developed by Eric J. Bylaska    *
          *  , Edoardo Apra, and Patrick Nichols.                  *
          *                                                        *
          **********************************************************
     >>>  JOB STARTED       AT Wed Feb  1 19:06:04 2012  <<<
          ================ input data ========================
 Brillioun Zone Vectors do not match!
 
 pseudopotential is not correctly formatted:
 Mg.cpp                                            
 
 pseudopotential is not correctly formatted---bad brillioun zone:
 Mg.cpp                                            
 
 Generated formatted_filename: 
 /scratch/scratchdirs/ebylaska/SNWC/brucite-nosym_25/Mg.cpp
 - Spline fitted, nray= 4490 -
 - filtered -
 Brillioun Zone Vectors do not match!
 
 pseudopotential is not correctly formatted:
 O.cpp                                             
 
 pseudopotential is not correctly formatted---bad brillioun zone:
 O.cpp                                             
 
 Generated formatted_filename: 
 /scratch/scratchdirs/ebylaska/SNWC/brucite-nosym_25/O.cpp
 - Spline fitted, nray= 4490 -
 - filtered -
 Brillioun Zone Vectors do not match!
 
 pseudopotential is not correctly formatted:
 H.cpp                                             
 
 pseudopotential is not correctly formatted---bad brillioun zone:
 H.cpp                                             
 
 Generated formatted_filename: 
 /scratch/scratchdirs/ebylaska/SNWC/brucite-nosym_25/H.cpp
 - Spline fitted, nray= 4490 -
 - filtered -
 Error reading psi - bad unitcell
  - Ignored if the following  parameter is set
  - set nwpw:psi_nolattice .true.
 Error reading psi - bad unitcell
  - Ignored if the following  parameter is set
  - set nwpw:psi_nolattice .true.
 Error reading psi - bad unitcell
  - Ignored if the following  parameter is set
  - set nwpw:psi_nolattice .true.

 input psi filename:/scratch/scratchdirs/ebylaska/SNWC/brucite-nosym_25/band-xxx-unknown-10160-2012-2-1-11:4.movecs

 number of processors used:              48
 processor grid           :  12 x   1 x   4
 parallel mapping         :     2d  hilbert

 options:
      boundary conditions  = periodic    (version3)
      electron spin        = restricted
      exchange-correlation = PBE96 (White and Bird) parameterization

 elements involved in the cluster:
      1: Mg    core charge: 2.0  lmax=2
             comment    : Troullier-Martins pseudopotential
             pseudpotential type            :   0
             highest angular component      :   2
             local potential used           :   2
             number of non-local projections:   4
             semicore corrections included  :  1.730 (radius)  0.712 (charge)
             cutoff =   2.592   2.592   2.592
      2: O     core charge: 6.0  lmax=2
             comment    : Parameterized (Chem.Phys.Lett., vol 322, page 447) Hamman psp
             pseudpotential type            :   0
             highest angular component      :   2
             local potential used           :   2
             number of non-local projections:   4
             cutoff =   0.700   0.700   0.700
      3: H     core charge: 1.0  lmax=1
             comment    : Parameterized (Chem.Phys.Lett., vol 322, page 447) Hamman psp
             pseudpotential type            :   0
             highest angular component      :   1
             local potential used           :   1
             number of non-local projections:   1
             cutoff =   0.800   0.800

 total charge:   0.000

 atomic composition:
     Mg  :  1     O   :  2     H   :  2

 number of electrons: spin up=    8.00  spin down=    8.00 (fourier space)
 number of orbitals:  spin up=       8  spin down=       8 (fourier space)

 supercell:
      lattice:    a1=<   5.145  -2.972   0.000 >
                  a2=<   0.000   5.942   0.000 >
                  a3=<   0.000   0.000   9.012 >
      reciprocal: b1=<   1.221   0.000   0.000 >
                  b2=<   0.611   1.057   0.000 >
                  b3=<   0.000   0.000   0.697 >

      lattice:    a=   5.942    b=   5.942     c=   9.012
              alpha=  90.000 beta=  90.000 gamma= 120.012
      volume :      275.5
      ewald summation: cut radius=    3.00  and  8
                        madelung= 1.61637205

 brillouin zone:
      number of zone points:     9
      weight=   0.111  ks=<   0.333   0.333   0.250 >, k=<   0.611   0.352   0.174>
      weight=   0.111  ks=<   0.000   0.333   0.250 >, k=<   0.204   0.352   0.174>
      weight=   0.111  ks=<  -0.333   0.333   0.250 >, k=<  -0.203   0.352   0.174>
      weight=   0.111  ks=<   0.333   0.000   0.250 >, k=<   0.407   0.000   0.174>
      weight=   0.111  ks=<   0.000   0.000   0.250 >, k=<   0.000   0.000   0.174>
      weight=   0.111  ks=<   0.333   0.000  -0.250 >, k=<   0.407   0.000  -0.174>
      weight=   0.111  ks=<   0.333  -0.333   0.250 >, k=<   0.203  -0.352   0.174>
      weight=   0.111  ks=<   0.000   0.333  -0.250 >, k=<   0.204   0.352  -0.174>
      weight=   0.111  ks=<   0.333   0.333  -0.250 >, k=<   0.611   0.352  -0.174>

 computational grids:
      density     cutoff=100.000  fft=  24x  24x  42(    12515 waves     1042 per task)
      wavefnc   1 cutoff= 50.000  fft=  24x  24x  42(     4668 waves      389 per task)
      wavefnc   2 cutoff= 50.000  fft=  24x  24x  42(     4672 waves      389 per task)
      wavefnc   3 cutoff= 50.000  fft=  24x  24x  42(     4672 waves      389 per task)
      wavefnc   4 cutoff= 50.000  fft=  24x  24x  42(     4672 waves      389 per task)
      wavefnc   5 cutoff= 50.000  fft=  24x  24x  42(     4691 waves      390 per task)
      wavefnc   6 cutoff= 50.000  fft=  24x  24x  42(     4672 waves      389 per task)
      wavefnc   7 cutoff= 50.000  fft=  24x  24x  42(     4672 waves      389 per task)
      wavefnc   8 cutoff= 50.000  fft=  24x  24x  42(     4672 waves      389 per task)
      wavefnc   9 cutoff= 50.000  fft=  24x  24x  42(     4668 waves      389 per task)

 technical parameters:
      time step=      5.80     ficticious mass=  400000.0
      tolerance=.100E-06 (energy)   0.100E-06 (density)
      maximum iterations =      1000 (   10 inner    100 outer )



= energy calculation =


          ======== bundled Grassmann lmbfgs iteration ========
     >>>  ITERATION STARTED AT Wed Feb  1 19:06:07 2012  <<<
    iter.           Energy         DeltaE       DeltaRho 
    ------------------------------------------------------
      10   -0.3439352090E+02   -0.98841E-07    0.13868E-04
      20   -0.3439352097E+02   -0.66184E-07    0.88723E-09
  *** tolerance ok.    iteration terminated.
     >>>  ITERATION ENDED   AT Wed Feb  1 19:06:08 2012  <<<


          =============  summary of results  =================
 
 number of electrons: spin up=    8.00000  down=    8.00000 (real space)

 total     energy    :  -0.3439352097E+02 (   -0.68787E+01/ion)
 total orbital energy:  -0.2512307792E+01 (   -0.31404E+00/electron)
 hartree   energy    :   0.1163765787E+02 (    0.14547E+01/electron)
 exc-corr  energy    :  -0.8593016975E+01 (   -0.10741E+01/electron)
 ion-ion   energy    :  -0.2253637442E+02 (   -0.45073E+01/ion)

 K.S. kinetic energy :   0.2418147660E+02 (    0.30227E+01/electron)
 K.S. V_l  energy    :  -0.1222883714E+02 (   -0.15286E+01/electron)
 K.S. V_nl energy    :  -0.1950527354E+01 (   -0.24382E+00/electron)
 K.S. V_Hart energy  :   0.2327531573E+02 (    0.29094E+01/electron)
 K.S. V_xc energy    :  -0.1088583608E+02 (   -0.13607E+01/electron)
 K.S. V_so energy    :   0.0000000000E+00 (    0.00000E+00/electron)
 Virial Coefficient  :  -0.7401883992E-01

 Brillouin zone point:      1
    weight=  0.111111
    k     =<   0.333   0.333   0.250> . <b1,b2,b3> 
          =<   0.611   0.352   0.174>

 orbital energies:
     0.2801797E-01 (   0.762eV) occ=1.000
     0.1528127E-01 (   0.416eV) occ=1.000
     0.1527799E-01 (   0.416eV) occ=1.000
    -0.2103266E-01 (  -0.572eV) occ=1.000
    -0.1145352E+00 (  -3.117eV) occ=1.000
    -0.1145548E+00 (  -3.117eV) occ=1.000
    -0.5614079E+00 ( -15.277eV) occ=1.000
    -0.5614145E+00 ( -15.277eV) occ=1.000

 Brillouin zone point:      2
    weight=  0.111111
    k     =<   0.000   0.333   0.250> . <b1,b2,b3> 
          =<   0.204   0.352   0.174>

 orbital energies:
     0.6459929E-01 (   1.758eV) occ=1.000
     0.3725717E-01 (   1.014eV) occ=1.000
     0.1642401E-01 (   0.447eV) occ=1.000
    -0.5766353E-02 (  -0.157eV) occ=1.000
    -0.9123729E-01 (  -2.483eV) occ=1.000
    -0.1440604E+00 (  -3.920eV) occ=1.000
    -0.5581641E+00 ( -15.189eV) occ=1.000
    -0.5754184E+00 ( -15.658eV) occ=1.000

 Brillouin zone point:      3
    weight=  0.111111
    k     =<  -0.333   0.333   0.250> . <b1,b2,b3> 
          =<  -0.203   0.352   0.174>

 orbital energies:
     0.6341106E-01 (   1.726eV) occ=1.000
     0.3832817E-01 (   1.043eV) occ=1.000
     0.1976155E-01 (   0.538eV) occ=1.000
    -0.7420935E-02 (  -0.202eV) occ=1.000
    -0.9442749E-01 (  -2.570eV) occ=1.000
    -0.1416177E+00 (  -3.854eV) occ=1.000
    -0.5587494E+00 ( -15.204eV) occ=1.000
    -0.5749348E+00 ( -15.645eV) occ=1.000

 Brillouin zone point:      4
    weight=  0.111111
    k     =<   0.333   0.000   0.250> . <b1,b2,b3> 
          =<   0.407   0.000   0.174>

 orbital energies:
     0.6337392E-01 (   1.725eV) occ=1.000
     0.3827810E-01 (   1.042eV) occ=1.000
     0.1976367E-01 (   0.538eV) occ=1.000
    -0.7405959E-02 (  -0.202eV) occ=1.000
    -0.9442504E-01 (  -2.569eV) occ=1.000
    -0.1416058E+00 (  -3.853eV) occ=1.000
    -0.5587439E+00 ( -15.204eV) occ=1.000
    -0.5749258E+00 ( -15.645eV) occ=1.000

 Brillouin zone point:      5
    weight=  0.111111
    k     =<   0.000   0.000   0.250> . <b1,b2,b3> 
          =<   0.000   0.000   0.174>

 orbital energies:
     0.7325711E-01 (   1.993eV) occ=1.000
     0.7322432E-01 (   1.993eV) occ=1.000
     0.5275489E-01 (   1.436eV) occ=1.000
     0.5272300E-01 (   1.435eV) occ=1.000
    -0.7260972E-01 (  -1.976eV) occ=1.000
    -0.1657136E+00 (  -4.509eV) occ=1.000
    -0.5622756E+00 ( -15.300eV) occ=1.000
    -0.5919395E+00 ( -16.108eV) occ=1.000

 Brillouin zone point:      6
    weight=  0.111111
    k     =<   0.333   0.000  -0.250> . <b1,b2,b3> 
          =<   0.407   0.000  -0.174>

 orbital energies:
     0.6460176E-01 (   1.758eV) occ=1.000
     0.3725891E-01 (   1.014eV) occ=1.000
     0.1642512E-01 (   0.447eV) occ=1.000
    -0.5762751E-02 (  -0.157eV) occ=1.000
    -0.9123681E-01 (  -2.483eV) occ=1.000
    -0.1440607E+00 (  -3.920eV) occ=1.000
    -0.5581642E+00 ( -15.189eV) occ=1.000
[...]


 pseudopotential is not correctly formatted:
 Mg.cpp2                                           
 
 pseudopotential is not correctly formatted-bad brillioun zone:
 Mg.cpp2                                           
 
 Generated formatted_stress_filename: 
 /scratch/scratchdirs/ebylaska/SNWC/brucite-nosym_25/Mg.cpp2
 - Spline fitted, nray= 4302 -
 - filtered -
 pseudopotential is not correctly formatted:
 O.cpp2                                            
 
 pseudopotential is not correctly formatted-bad brillioun zone:
 O.cpp2                                            
 
 Generated formatted_stress_filename: 
 /scratch/scratchdirs/ebylaska/SNWC/brucite-nosym_25/O.cpp2
 - Spline fitted, nray= 4302 -
 - filtered -
 pseudopotential is not correctly formatted:
 H.cpp2                                            
 
 pseudopotential is not correctly formatted-bad brillioun zone:
 H.cpp2                                            
 
 Generated formatted_stress_filename: 
 /scratch/scratchdirs/ebylaska/SNWC/brucite-nosym_25/H.cpp2
 - Spline fitted, nray= 4302 -
 - filtered -


======================
= Stress calculation =
======================


          ============= total gradient ==============
      S =  (   -0.00001   -0.00002   -0.00001 )
           (   -0.00001   -0.00002    0.00000 )
           (   -0.00003   -0.00001    0.00003 )
          ===================================================
          |S|      = 0.51535E-04
          pressure = 0.993E-07 au
                   = 0.292E-04 Mbar
                   = 0.292E-02 GPa
                   = 0.288E+02 atm

 
       dE/da     =     0.00000
       dE/db     =    -0.00002
       dE/dc     =     0.00003
       dE/dalpha =     0.00006
       dE/dbeta  =     0.00015
       dE/dgamma =     0.00010
 
 
 Writing Crystallographic Information File:
 /scratch/scratchdirs/ebylaska/SNWC/brucite-nosym_25/brucite-nosym.cif
   - cell not shifted (nwpw:cif_shift_cell .false.)

 output psi filename:/scratch/scratchdirs/ebylaska/SNWC/brucite-nosym_25/band-xxx-unknown-10160-2012-2-1-11:4.movecs


== Timing ==

cputime in seconds
  prologue    :   0.266848E+01
  main loop   :   0.353515E+01
  epilogue    :   0.397772E+00
  total       :   0.660141E+01
  cputime/step:   0.130932E+00       (      27 evalulations,      11 linesearches)


Time spent doing                        total          step
  FFTs                       :   0.109292E+00  0.404784E-02
  dot products               :   0.646176E+00  0.239325E-01
  geodesic                   :   0.721617E-01  0.267265E-02
  ffm_dgemm                  :   0.000000E+00  0.000000E+00
  fmf_dgemm                  :   0.000000E+00  0.000000E+00
  m_diagonalize              :   0.000000E+00  0.000000E+00
    - m_tredq                :   0.000000E+00  0.000000E+00
       - m_tredq_houseq      :   0.000000E+00  0.000000E+00
       - m_tredq_houseq_dgemm:   0.000000E+00  0.000000E+00
       - m_tredq_dgemm1      :   0.000000E+00  0.000000E+00
    - m_getdiags             :   0.000000E+00  0.000000E+00
    - m_tqliq                :   0.000000E+00  0.000000E+00
    - m_eigsrt               :   0.000000E+00  0.000000E+00
  exchange correlation       :   0.143188E+00  0.530324E-02
  local pseudopotentials     :   0.152421E-02  0.564522E-04
  non-local pseudopotentials :   0.708365E-01  0.262358E-02
  hartree potentials         :   0.210619E-02  0.780070E-04
  ion-ion interaction        :   0.197170E-01  0.730258E-03
  structure factors          :   0.265095E-02  0.981833E-04
  phase factors              :   0.000000E+00  0.000000E+00
  masking and packing        :   0.102434E+00  0.379385E-02
  queue fft                  :   0.458053E+00  0.169649E-01
  queue fft (serial)         :   0.108025E+00  0.400093E-02
  queue fft (message passing):   0.340830E+00  0.126233E-01
  HFX potential              :   0.000000E+00  0.000000E+00
  qmmm LJ                    :   0.000000E+00  0.000000E+00
  qmmm residual Q            :   0.000000E+00  0.000000E+00
 
     >>>  JOB COMPLETED     AT Wed Feb  1 19:25:43 2012  <<<

  Step       Energy      Delta E   Gmax     Grms     Xrms     Xmax   Walltime
  ---- ---------------- -------- -------- -------- -------- -------- --------
@  105     -34.39034204 -4.7D-07  0.00212  0.00088  0.00004  0.00013   1209.9
                                                       ok       ok  

 Restricting overall step due to uphill motion.   alpha=  0.70
          **********************************************************
          *                                                        *
          *                   NWPW BAND Calculation                *
          *                                                        *
          *  [(bundled Grassman/Stiefel manifold implementation)]  *
          *                                                        *
          *         [ NorthWest Chemistry implementation ]         *
          *                                                        *
          *                version #1.10   01/31/03                *
          *                                                        *
          *  A pseudopotential plane-wave band structure program   *
          *  with Brillouin zone sampling for optimizing crystals, *
          *  slabs, and polymers.  Developed by Eric J. Bylaska    *
          *  , Edoardo Apra, and Patrick Nichols.                  *
          *                                                        *
          **********************************************************
     >>>  JOB STARTED       AT Wed Feb  1 19:25:43 2012  <<<
          ================ input data ========================
 Brillioun Zone Vectors do not match!
 
 pseudopotential is not correctly formatted:
 Mg.cpp                                            
 
 pseudopotential is not correctly formatted---bad brillioun zone:
 Mg.cpp                                            
 
 Generated formatted_filename: 
 /scratch/scratchdirs/ebylaska/SNWC/brucite-nosym_25/Mg.cpp
 - Spline fitted, nray= 4302 -
 - filtered -
 Brillioun Zone Vectors do not match!
 
 pseudopotential is not correctly formatted:
 O.cpp                                             
 
 pseudopotential is not correctly formatted---bad brillioun zone:
 O.cpp                                             
 
 Generated formatted_filename: 
 /scratch/scratchdirs/ebylaska/SNWC/brucite-nosym_25/O.cpp
 - Spline fitted, nray= 4302 -
 - filtered -
 Brillioun Zone Vectors do not match!
 
 pseudopotential is not correctly formatted:
 H.cpp                                             
 
 pseudopotential is not correctly formatted---bad brillioun zone:
 H.cpp                                             
 
 Generated formatted_filename: 
 /scratch/scratchdirs/ebylaska/SNWC/brucite-nosym_25/H.cpp
 - Spline fitted, nray= 4302 -
 - filtered -
 Error reading psi - bad unitcell
  - Ignored if the following  parameter is set
  - set nwpw:psi_nolattice .true.
 Error reading psi - bad unitcell
  - Ignored if the following  parameter is set
  - set nwpw:psi_nolattice .true.
 Error reading psi - bad unitcell
  - Ignored if the following  parameter is set
  - set nwpw:psi_nolattice .true.

 input psi filename:/scratch/scratchdirs/ebylaska/SNWC/brucite-nosym_25/band-xxx-unknown-10160-2012-2-1-11:4.movecs

 number of processors used:              48
 processor grid           :  12 x   1 x   4
 parallel mapping         :     2d  hilbert

 options:
      boundary conditions  = periodic    (version3)
      electron spin        = restricted
      exchange-correlation = PBE96 (White and Bird) parameterization

 elements involved in the cluster:
      1: Mg    core charge: 2.0  lmax=2
             comment    : Troullier-Martins pseudopotential
             pseudpotential type            :   0
             highest angular component      :   2
             local potential used           :   2
             number of non-local projections:   4
             semicore corrections included  :  1.730 (radius)  0.713 (charge)
             cutoff =   2.592   2.592   2.592
      2: O     core charge: 6.0  lmax=2
             comment    : Parameterized (Chem.Phys.Lett., vol 322, page 447) Hamman psp
             pseudpotential type            :   0
             highest angular component      :   2
             local potential used           :   2
             number of non-local projections:   4
             cutoff =   0.700   0.700   0.700
      3: H     core charge: 1.0  lmax=1
             comment    : Parameterized (Chem.Phys.Lett., vol 322, page 447) Hamman psp
             pseudpotential type            :   0
             highest angular component      :   1
             local potential used           :   1
             number of non-local projections:   1
             cutoff =   0.800   0.800

 total charge:   0.000

 atomic composition:
     Mg  :  1     O   :  2     H   :  2

 number of electrons: spin up=    8.00  spin down=    8.00 (fourier space)
 number of orbitals:  spin up=       8  spin down=       8 (fourier space)

 supercell:
      lattice:    a1=<   5.037  -2.913   0.000 >
                  a2=<   0.000   5.818   0.000 >
                  a3=<   0.040  -0.079   8.478 >
      reciprocal: b1=<   1.247   0.000  -0.006 >
                  b2=<   0.625   1.080   0.007 >
                  b3=<   0.000   0.000   0.741 >

      lattice:    a=   5.819    b=   5.818     c=   8.479
              alpha=  90.535 beta=  89.500 gamma= 120.044
      volume :      248.5
      ewald summation: cut radius=    3.00  and  8
                        madelung= 1.64302166

 brillouin zone:
      number of zone points:     9
      weight=   0.111  ks=<   0.333   0.333   0.250 >, k=<   0.624   0.360   0.186>
      weight=   0.111  ks=<   0.000   0.333   0.250 >, k=<   0.208   0.360   0.188>
      weight=   0.111  ks=<  -0.333   0.333   0.250 >, k=<  -0.208   0.360   0.190>
      weight=   0.111  ks=<   0.333   0.000   0.250 >, k=<   0.416   0.000   0.183>
      weight=   0.111  ks=<   0.000   0.000   0.250 >, k=<   0.000   0.000   0.185>
      weight=   0.111  ks=<   0.333   0.000  -0.250 >, k=<   0.416   0.000  -0.187>
      weight=   0.111  ks=<   0.333  -0.333   0.250 >, k=<   0.208  -0.360   0.181>
      weight=   0.111  ks=<   0.000   0.333  -0.250 >, k=<   0.208   0.360  -0.183>
      weight=   0.111  ks=<   0.333   0.333  -0.250 >, k=<   0.624   0.360  -0.185>

 computational grids:
      density     cutoff=100.000  fft=  24x  24x  40(    11385 waves      948 per task)
      wavefnc   1 cutoff= 50.000  fft=  24x  24x  40(     4178 waves      348 per task)
      wavefnc   2 cutoff= 50.000  fft=  24x  24x  40(     4203 waves      350 per task)
      wavefnc   3 cutoff= 50.000  fft=  24x  24x  40(     4208 waves      350 per task)
      wavefnc   4 cutoff= 50.000  fft=  24x  24x  40(     4201 waves      350 per task)
      wavefnc   5 cutoff= 50.000  fft=  24x  24x  40(     4199 waves      349 per task)
      wavefnc   6 cutoff= 50.000  fft=  24x  24x  40(     4202 waves      350 per task)
      wavefnc   7 cutoff= 50.000  fft=  24x  24x  40(     4199 waves      349 per task)
      wavefnc   8 cutoff= 50.000  fft=  24x  24x  40(     4198 waves      349 per task)
      wavefnc   9 cutoff= 50.000  fft=  24x  24x  40(     4179 waves      348 per task)

 technical parameters:
      time step=      5.80     ficticious mass=  400000.0
      tolerance=.100E-06 (energy)   0.100E-06 (density)
      maximum iterations =      1000 (   10 inner    100 outer )



= energy calculation =


          ======== bundled Grassmann lmbfgs iteration ========
     >>>  ITERATION STARTED AT Wed Feb  1 19:25:46 2012  <<<
    iter.           Energy         DeltaE       DeltaRho 
    ------------------------------------------------------
      10   -0.3439033476E+02   -0.24750E-05    0.13254E-03
      20   -0.3439034153E+02   -0.85861E-07    0.34117E-06
      30   -0.3439034160E+02   -0.63348E-07    0.72251E-10
  *** tolerance ok.    iteration terminated.
     >>>  ITERATION ENDED   AT Wed Feb  1 19:25:47 2012  <<<


          =============  summary of results  =================
 
 number of electrons: spin up=    8.00000  down=    8.00000 (real space)

 total     energy    :  -0.3439034160E+02 (   -0.68781E+01/ion)
 total orbital energy:  -0.2066018946E+01 (   -0.25825E+00/electron)
 hartree   energy    :   0.1088538749E+02 (    0.13607E+01/electron)
 exc-corr  energy    :  -0.8632806218E+01 (   -0.10791E+01/electron)
 ion-ion   energy    :  -0.2374455694E+02 (   -0.47489E+01/ion)

 K.S. kinetic energy :   0.2430809553E+02 (    0.30385E+01/electron)
 K.S. V_l  energy    :  -0.1159689045E+02 (   -0.14496E+01/electron)
 K.S. V_nl energy    :  -0.1959069791E+01 (   -0.24488E+00/electron)
 K.S. V_Hart energy  :   0.2177077499E+02 (    0.27213E+01/electron)
 K.S. V_xc energy    :  -0.1093842800E+02 (   -0.13673E+01/electron)
 K.S. V_so energy    :   0.0000000000E+00 (    0.00000E+00/electron)
 Virial Coefficient  :  -0.1120455219E+00

 Brillouin zone point:      1
    weight=  0.111111
    k     =<   0.333   0.333   0.250> . <b1,b2,b3> 
          =<   0.624   0.360   0.186>

 orbital energies:
     0.5675185E-01 (   1.544eV) occ=1.000
     0.4492826E-01 (   1.223eV) occ=1.000
     0.4272546E-01 (   1.163eV) occ=1.000
     0.2362982E-02 (   0.064eV) occ=1.000
    -0.8850947E-01 (  -2.408eV) occ=1.000
    -0.9070090E-01 (  -2.468eV) occ=1.000
    -0.5316681E+00 ( -14.468eV) occ=1.000
    -0.5333583E+00 ( -14.514eV) occ=1.000

 Brillouin zone point:      2
    weight=  0.111111
    k     =<   0.000   0.333   0.250> . <b1,b2,b3> 
          =<   0.208   0.360   0.188>

 orbital energies:
     0.9612333E-01 (   2.616eV) occ=1.000
     0.6528607E-01 (   1.777eV) occ=1.000
     0.4546601E-01 (   1.237eV) occ=1.000
     0.2218620E-01 (   0.604eV) occ=1.000
    -0.6397979E-01 (  -1.741eV) occ=1.000
    -0.1203156E+00 (  -3.274eV) occ=1.000
    -0.5263752E+00 ( -14.324eV) occ=1.000
    -0.5514034E+00 ( -15.005eV) occ=1.000

 Brillouin zone point:      3
    weight=  0.111111
    k     =<  -0.333   0.333   0.250> . <b1,b2,b3> 
          =<  -0.208   0.360   0.190>

 orbital energies:
     0.9467998E-01 (   2.576eV) occ=1.000
     0.6688184E-01 (   1.820eV) occ=1.000
     0.5140720E-01 (   1.399eV) occ=1.000
     0.1521758E-01 (   0.414eV) occ=1.000
    -0.6531224E-01 (  -1.777eV) occ=1.000
    -0.1171202E+00 (  -3.187eV) occ=1.000
    -0.5267870E+00 ( -14.335eV) occ=1.000
    -0.5512792E+00 ( -15.001eV) occ=1.000

 Brillouin zone point:      4
    weight=  0.111111
    k     =<   0.333   0.000   0.250> . <b1,b2,b3> 
          =<   0.416   0.000   0.183>

 orbital energies:
     0.9390731E-01 (   2.555eV) occ=1.000
     0.6712276E-01 (   1.827eV) occ=1.000
     0.5117725E-01 (   1.393eV) occ=1.000
     0.1771943E-01 (   0.482eV) occ=1.000
    -0.6739476E-01 (  -1.834eV) occ=1.000
    -0.1171755E+00 (  -3.189eV) occ=1.000
    -0.5268335E+00 ( -14.336eV) occ=1.000
    -0.5510691E+00 ( -14.995eV) occ=1.000

 Brillouin zone point:      5
    weight=  0.111111
    k     =<   0.000   0.000   0.250> . <b1,b2,b3> 
          =<   0.000   0.000   0.185>

 orbital energies:
     0.1056682E+00 (   2.875eV) occ=1.000
     0.1047130E+00 (   2.849eV) occ=1.000
     0.8311398E-01 (   2.262eV) occ=1.000
     0.8260518E-01 (   2.248eV) occ=1.000
    -0.3906496E-01 (  -1.063eV) occ=1.000
    -0.1413197E+00 (  -3.846eV) occ=1.000
    -0.5295760E+00 ( -14.411eV) occ=1.000
    -0.5725593E+00 ( -15.580eV) occ=1.000

 Brillouin zone point:      6
    weight=  0.111111
    k     =<   0.333   0.000  -0.250> . <b1,b2,b3> 
          =<   0.416   0.000  -0.187>

 orbital energies:
     0.9613426E-01 (   2.616eV) occ=1.000
     0.6531155E-01 (   1.777eV) occ=1.000
     0.4556188E-01 (   1.240eV) occ=1.000
     0.2209615E-01 (   0.601eV) occ=1.000
    -0.6393602E-01 (  -1.740eV) occ=1.000
    -0.1203513E+00 (  -3.275eV) occ=1.000
    -0.5263068E+00 ( -14.322eV) occ=1.000
    -0.5514734E+00 ( -15.006eV) occ=1.000

 Brillouin zone point:      7
    weight=  0.111111
    k     =<   0.333  -0.333   0.250> . <b1,b2,b3> 
          =<   0.208  -0.360   0.181>

 orbital energies:
     0.9639382E-01 (   2.623eV) occ=1.000
     0.6545454E-01 (   1.781eV) occ=1.000
     0.4679992E-01 (   1.274eV) occ=1.000
     0.2051940E-01 (   0.558eV) occ=1.000
    -0.6280125E-01 (  -1.709eV) occ=1.000
    -0.1209524E+00 (  -3.291eV) occ=1.000
    -0.5252505E+00 ( -14.293eV) occ=1.000
    -0.5525073E+00 ( -15.035eV) occ=1.000

 Brillouin zone point:      8
    weight=  0.111111
    k     =<   0.000   0.333  -0.250> . <b1,b2,b3> 
          =<   0.208   0.360  -0.183>

 orbital energies:
     0.9386703E-01 (   2.554eV) occ=1.000
     0.6712669E-01 (   1.827eV) occ=1.000
     0.5117507E-01 (   1.393eV) occ=1.000
     0.1786431E-01 (   0.486eV) occ=1.000
    -0.6751696E-01 (  -1.837eV) occ=1.000
    -0.1171741E+00 (  -3.188eV) occ=1.000
    -0.5268228E+00 ( -14.336eV) occ=1.000
    -0.5510636E+00 ( -14.995eV) occ=1.000

 Brillouin zone point:      9
    weight=  0.111111
    k     =<   0.333   0.333  -0.250> . <b1,b2,b3> 
          =<   0.624   0.360  -0.185>

 orbital energies:
     0.5674897E-01 (   1.544eV) occ=1.000
     0.4490798E-01 (   1.222eV) occ=1.000
     0.4274358E-01 (   1.163eV) occ=1.000
     0.2363300E-02 (   0.064eV) occ=1.000
    -0.8850315E-01 (  -2.408eV) occ=1.000
    -0.9070897E-01 (  -2.468eV) occ=1.000
    -0.5316718E+00 ( -14.468eV) occ=1.000
    -0.5333549E+00 ( -14.513eV) occ=1.000

 Total BAND energy   :  -0.3439034160E+02


=== Spin Contamination ===
 
 <Sexact^2> =     0.000000000000000     
 <S^2>      =     0.000000000000000     
 
 
 Writing Crystallographic Information File:
 /scratch/scratchdirs/ebylaska/SNWC/brucite-nosym_25/brucite-nosym.cif
   - cell not shifted (nwpw:cif_shift_cell .false.)

 output psi filename:/scratch/scratchdirs/ebylaska/SNWC/brucite-nosym_25/band-xxx-unknown-10160-2012-2-1-11:4.movecs


== Timing ==

cputime in seconds
  prologue    :   0.263950E+01
  main loop   :   0.147983E+01
  epilogue    :   0.391955E+00
  total       :   0.451129E+01
  cputime/step:   0.302007E-01       (      49 evalulations,      21 linesearches)


Time spent doing                        total          step
  FFTs                       :   0.179811E+00  0.366962E-02
  dot products               :   0.353617E+00  0.721668E-02
  geodesic                   :   0.137113E+00  0.279823E-02
  ffm_dgemm                  :   0.000000E+00  0.000000E+00
  fmf_dgemm                  :   0.000000E+00  0.000000E+00
  m_diagonalize              :   0.000000E+00  0.000000E+00
    - m_tredq                :   0.000000E+00  0.000000E+00
       - m_tredq_houseq      :   0.000000E+00  0.000000E+00
       - m_tredq_houseq_dgemm:   0.000000E+00  0.000000E+00
       - m_tredq_dgemm1      :   0.000000E+00  0.000000E+00
    - m_getdiags             :   0.000000E+00  0.000000E+00
    - m_tqliq                :   0.000000E+00  0.000000E+00
    - m_eigsrt               :   0.000000E+00  0.000000E+00
  exchange correlation       :   0.252043E+00  0.514373E-02
  local pseudopotentials     :   0.123978E-03  0.253016E-05
  non-local pseudopotentials :   0.816326E-01  0.166597E-02
  hartree potentials         :   0.371933E-02  0.759047E-04
  ion-ion interaction        :   0.543904E-02  0.111001E-03
  structure factors          :   0.399565E-02  0.815439E-04
  phase factors              :   0.000000E+00  0.000000E+00
  masking and packing        :   0.169339E+00  0.345591E-02
  queue fft                  :   0.828408E+00  0.169063E-01
  queue fft (serial)         :   0.195939E+00  0.399875E-02
  queue fft (message passing):   0.615598E+00  0.125632E-01
  HFX potential              :   0.000000E+00  0.000000E+00
  qmmm LJ                    :   0.000000E+00  0.000000E+00
  qmmm residual Q            :   0.000000E+00  0.000000E+00
 
     >>>  JOB COMPLETED     AT Wed Feb  1 19:25:48 2012  <<<
 Line search: 
     step= 0.70 grad=-3.2D-06 hess= 5.4D-06 energy